variables = "r", "V(r) ", "Uncertainty"
zone T = "State 1 V(r)   out                 "

    0.000500    1.9581267155272D+12     0.0
    0.001000    4.8947476420820D+11     0.0
    0.001500    2.1751897523422D+11     0.0
    0.002000    1.2234011708769D+11     0.0
    0.002500    7.8288493710827D+10     0.0
    0.003000    5.4360616174148D+10     0.0
    0.003500    3.9933701815306D+10     0.0
    0.004000    3.0570624372943D+10     0.0
    0.004500    2.4151702371302D+10     0.0
    0.005000    1.9560551826246D+10     0.0
    0.005500    1.6163816765018D+10     0.0
    0.006000    1.3580471020515D+10     0.0
    0.006500    1.1570137129213D+10     0.0
    0.007000    9.9750911697199D+09     0.0
    0.007500    8.6883640323924D+09     0.0
    0.008000    7.6353331482662D+09     0.0
    0.008500    6.7626574474658D+09     0.0
    0.009000    6.0313890537685D+09     0.0
    0.009500    5.4125524551622D+09     0.0
    0.010000    4.8842303701078D+09     0.0
    0.010500    4.4295967928730D+09     0.0
    0.011000    4.0355610458699D+09     0.0
    0.011500    3.6918151733871D+09     0.0
    0.012000    3.3901531671261D+09     0.0
    0.012500    3.1239768574006D+09     0.0
    0.013000    2.8879321872759D+09     0.0
    0.013500    2.6776379828243D+09     0.0
    0.014000    2.4894812826028D+09     0.0
    0.014500    2.3204611936826D+09     0.0
    0.015000    2.1680685572244D+09     0.0
    0.015500    2.0301923365749D+09     0.0
    0.016000    1.9050461550477D+09     0.0
    0.016500    1.7911101749369D+09     0.0
    0.017000    1.6870847627183D+09     0.0
    0.017500    1.5918532860398D+09     0.0
    0.018000    1.5044520421584D+09     0.0
    0.018500    1.4240457972674D+09     0.0
    0.019000    1.3499077714023D+09     0.0
    0.019500    1.2814031689779D+09     0.0
    0.020000    1.2179755548944D+09     0.0
    0.020500    1.1591355278953D+09     0.0
    0.021000    1.1044512589217D+09     0.0
    0.021500    1.0535405516001D+09     0.0
    0.022000    1.0060641513137D+09     0.0
    0.022500    9.6172008339835D+08     0.0
    0.023000    9.2023884346051D+08     0.0
    0.023500    8.8137929634418D+08     0.0
    0.024000    8.4492516688638D+08     0.0
    0.024500    8.1068202684151D+08     0.0
    0.025000    7.7847469939334D+08     0.0
    0.025500    7.4814501639956D+08     0.0
    0.026000    7.1954987463022D+08     0.0
    0.026500    6.9255954629967D+08     0.0
    0.027000    6.6705620657061D+08     0.0
    0.027500    6.4293264676056D+08     0.0
    0.028000    6.2009114695959D+08     0.0
    0.028500    5.9844248588527D+08     0.0
    0.029000    5.7790506920815D+08     0.0
    0.029500    5.5840416042159D+08     0.0
    0.030000    5.3987120069788D+08     0.0
    0.030500    5.2224320615648D+08     0.0
    0.031000    5.0546223263590D+08     0.0
    0.031500    4.8947489946639D+08     0.0
    0.032000    4.7423196492539D+08     0.0
    0.032500    4.5968794706433D+08     0.0
    0.033000    4.4580078444825D+08     0.0
    0.033500    4.3253153207864D+08     0.0
    0.034000    4.1984408839043D+08     0.0
    0.034500    4.0770494974652D+08     0.0
    0.035000    3.9608298930938D+08     0.0
    0.035500    3.8494925756264D+08     0.0
    0.036000    3.7427680209349D+08     0.0
    0.036500    3.6404050453968D+08     0.0
    0.037000    3.5421693285777D+08     0.0
    0.037500    3.4478420728927D+08     0.0
    0.038000    3.3572187859230D+08     0.0
    0.038500    3.2701081727245D+08     0.0
    0.039000    3.1863311269203D+08     0.0
    0.039500    3.1057198106355D+08     0.0
    0.040000    3.0281168144455D+08     0.0
    0.040500    2.9533743894832D+08     0.0
    0.041000    2.8813537447074D+08     0.0
    0.041500    2.8119244030900D+08     0.0
    0.042000    2.7449636111419D+08     0.0
    0.042500    2.6803557967896D+08     0.0
    0.043000    2.6179920711266D+08     0.0
    0.043500    2.5577697700309D+08     0.0
    0.044000    2.4995920320439D+08     0.0
    0.044500    2.4433674092687D+08     0.0
    0.045000    2.3890095083685D+08     0.0
    0.045500    2.3364366590349D+08     0.0
    0.046000    2.2855716075485D+08     0.0
    0.046500    2.2363412332841D+08     0.0
    0.047000    2.1886762862210D+08     0.0
    0.047500    2.1425111436950D+08     0.0
    0.048000    2.0977835847988D+08     0.0
    0.048500    2.0544345809824D+08     0.0
    0.049000    2.0124081015377D+08     0.0
    0.049500    1.9716509327688D+08     0.0
    0.050000    1.9321125097614D+08     0.0
    0.050500    1.8937447597557D+08     0.0
    0.051000    1.8565019562180D+08     0.0
    0.051500    1.8203405827839D+08     0.0
    0.052000    1.7852192063174D+08     0.0
    0.052500    1.7510983583940D+08     0.0
    0.053000    1.7179404245759D+08     0.0
    0.053500    1.6857095408977D+08     0.0
    0.054000    1.6543714970338D+08     0.0
    0.054500    1.6238936456549D+08     0.0
    0.055000    1.5942448175305D+08     0.0
    0.055500    1.5653952419602D+08     0.0
    0.056000    1.5373164721593D+08     0.0
    0.056500    1.5099813152453D+08     0.0
    0.057000    1.4833637665071D+08     0.0
    0.057500    1.4574389476586D+08     0.0
    0.058000    1.4321830488025D+08     0.0
    0.058500    1.4075732738539D+08     0.0
    0.059000    1.3835877891872D+08     0.0
    0.059500    1.3602056752931D+08     0.0
    0.060000    1.3374068812436D+08     0.0
    0.060500    1.3151721817821D+08     0.0
    0.061000    1.2934831368658D+08     0.0
    0.061500    1.2723220535012D+08     0.0
    0.062000    1.2516719497273D+08     0.0
    0.062500    1.2315165206072D+08     0.0
    0.063000    1.2118401061024D+08     0.0
    0.063500    1.1926276607120D+08     0.0
    0.064000    1.1738647247653D+08     0.0
    0.064500    1.1555373972670D+08     0.0
    0.065000    1.1376323102001D+08     0.0
    0.065500    1.1201366041958D+08     0.0
    0.066000    1.1030379054904D+08     0.0
    0.066500    1.0863243040902D+08     0.0
    0.067000    1.0699843330729D+08     0.0
    0.067500    1.0540069489597D+08     0.0
    0.068000    1.0383815130928D+08     0.0
    0.068500    1.0230977739627D+08     0.0
    0.069000    1.0081458504280D+08     0.0
    0.069500    9.9351621577797D+07     0.0
    0.070000    9.7919968258923D+07     0.0
    0.070500    9.6518738833193D+07     0.0
    0.071000    9.5147078168315D+07     0.0
    0.071500    9.3804160950831D+07     0.0
    0.072000    9.2489190447324D+07     0.0
    0.072500    9.1201397325267D+07     0.0
    0.073000    8.9940038530215D+07     0.0
    0.073500    8.8704396216313D+07     0.0
    0.074000    8.7493776727233D+07     0.0
    0.074500    8.6307509624842D+07     0.0
    0.075000    8.5144946763066D+07     0.0
    0.075500    8.4005461404562D+07     0.0
    0.076000    8.2888447377953D+07     0.0
    0.076500    8.1793318273504D+07     0.0
    0.077000    8.0719506675262D+07     0.0
    0.077500    7.9666463427769D+07     0.0
    0.078000    7.8633656935580D+07     0.0
    0.078500    7.7620572493948D+07     0.0
    0.079000    7.6626711649058D+07     0.0
    0.079500    7.5651591586354D+07     0.0
    0.080000    7.4694744545566D+07     0.0
    0.080500    7.3755717261090D+07     0.0
    0.081000    7.2834070426483D+07     0.0
    0.081500    7.1929378181912D+07     0.0
    0.082000    7.1041227623395D+07     0.0
    0.082500    7.0169218332827D+07     0.0
    0.083000    6.9312961927775D+07     0.0
    0.083500    6.8472081630082D+07     0.0
    0.084000    6.7646211852415D+07     0.0
    0.084500    6.6834997801871D+07     0.0
    0.085000    6.6038095099900D+07     0.0
    0.085500    6.5255169417712D+07     0.0
    0.086000    6.4485896126511D+07     0.0
    0.086500    6.3729959961833D+07     0.0
    0.087000    6.2987054701364D+07     0.0
    0.087500    6.2256882855605D+07     0.0
    0.088000    6.1539155370821D+07     0.0
    0.088500    6.0833591343689D+07     0.0
    0.089000    6.0139917747183D+07     0.0
    0.089500    5.9457869167099D+07     0.0
    0.090000    5.8787187548855D+07     0.0
    0.090500    5.8127621954021D+07     0.0
    0.091000    5.7478928326210D+07     0.0
    0.091500    5.6840869265908D+07     0.0
    0.092000    5.6213213813839D+07     0.0
    0.092500    5.5595737242514D+07     0.0
    0.093000    5.4988220855608D+07     0.0
    0.093500    5.4390451794836D+07     0.0
    0.094000    5.3802222853988D+07     0.0
    0.094500    5.3223332299857D+07     0.0
    0.095000    5.2653583699735D+07     0.0
    0.095500    5.2092785755227D+07     0.0
    0.096000    5.1540752142099D+07     0.0
    0.096500    5.0997301355947D+07     0.0
    0.097000    5.0462256563389D+07     0.0
    0.097500    4.9935445458616D+07     0.0
    0.098000    4.9416700125044D+07     0.0
    0.098500    4.8905856901874D+07     0.0
    0.099000    4.8402756255359D+07     0.0
    0.099500    4.7907242654589D+07     0.0
    0.100000    4.7419164451618D+07     0.0
    0.100500    4.6938373765757D+07     0.0
    0.101000    4.6464726371873D+07     0.0
    0.101500    4.5998081592513D+07     0.0
    0.102000    4.5538302193756D+07     0.0
    0.102500    4.5085254284582D+07     0.0
    0.103000    4.4638807219670D+07     0.0
    0.103500    4.4198833505480D+07     0.0
    0.104000    4.3765208709479D+07     0.0
    0.104500    4.3337811372409D+07     0.0
    0.105000    4.2916522923469D+07     0.0
    0.105500    4.2501227598316D+07     0.0
    0.106000    4.2091812359756D+07     0.0
    0.106500    4.1688166821037D+07     0.0
    0.107000    4.1290183171669D+07     0.0
    0.107500    4.0897756105615D+07     0.0
    0.108000    4.0510782751847D+07     0.0
    0.108500    4.0129162607110D+07     0.0
    0.109000    3.9752797470852D+07     0.0
    0.109500    3.9381591382229D+07     0.0
    0.110000    3.9015450559107D+07     0.0
    0.110500    3.8654283339005D+07     0.0
    0.111000    3.8298000121880D+07     0.0
    0.111500    3.7946513314718D+07     0.0
    0.112000    3.7599737277847D+07     0.0
    0.112500    3.7257588272922D+07     0.0
    0.113000    3.6919984412516D+07     0.0
    0.113500    3.6586845611259D+07     0.0
    0.114000    3.6258093538485D+07     0.0
    0.114500    3.5933651572318D+07     0.0
    0.115000    3.5613444755145D+07     0.0
    0.115500    3.5297399750453D+07     0.0
    0.116000    3.4985444800958D+07     0.0
    0.116500    3.4677509687983D+07     0.0
    0.117000    3.4373525692065D+07     0.0
    0.117500    3.4073425554716D+07     0.0
    0.118000    3.3777143441331D+07     0.0
    0.118500    3.3484614905187D+07     0.0
    0.119000    3.3195776852486D+07     0.0
    0.119500    3.2910567508443D+07     0.0
    0.120000    3.2628926384343D+07     0.0
    0.120500    3.2350794245560D+07     0.0
    0.121000    3.2076113080504D+07     0.0
    0.121500    3.1804826070451D+07     0.0
    0.122000    3.1536877560251D+07     0.0
    0.122500    3.1272213029857D+07     0.0
    0.123000    3.1010779066676D+07     0.0
    0.123500    3.0752523338690D+07     0.0
    0.124000    3.0497394568352D+07     0.0
    0.124500    3.0245342507193D+07     0.0
    0.125000    2.9996317911156D+07     0.0
    0.125500    2.9750272516613D+07     0.0
    0.126000    2.9507159017041D+07     0.0
    0.126500    2.9266931040349D+07     0.0
    0.127000    2.9029543126830D+07     0.0
    0.127500    2.8794950707708D+07     0.0
    0.128000    2.8563110084287D+07     0.0
    0.128500    2.8333978407647D+07     0.0
    0.129000    2.8107513658910D+07     0.0
    0.129500    2.7883674630024D+07     0.0
    0.130000    2.7662420905071D+07     0.0
    0.130500    2.7443712842077D+07     0.0
    0.131000    2.7227511555296D+07     0.0
    0.131500    2.7013778897985D+07     0.0
    0.132000    2.6802477445612D+07     0.0
    0.132500    2.6593570479528D+07     0.0
    0.133000    2.6387021971054D+07     0.0
    0.133500    2.6182796565988D+07     0.0
    0.134000    2.5980859569524D+07     0.0
    0.134500    2.5781176931550D+07     0.0
    0.135000    2.5583715232337D+07     0.0
    0.135500    2.5388441668592D+07     0.0
    0.136000    2.5195324039874D+07     0.0
    0.136500    2.5004330735351D+07     0.0
    0.137000    2.4815430720902D+07     0.0
    0.137500    2.4628593526544D+07     0.0
    0.138000    2.4443789234176D+07     0.0
    0.138500    2.4260988465636D+07     0.0
    0.139000    2.4080162371054D+07     0.0
    0.139500    2.3901282617501D+07     0.0
    0.140000    2.3724321377918D+07     0.0
    0.140500    2.3549251320327D+07     0.0
    0.141000    2.3376045597297D+07     0.0
    0.141500    2.3204677835686D+07     0.0
    0.142000    2.3035122126622D+07     0.0
    0.142500    2.2867353015738D+07     0.0
    0.143000    2.2701345493645D+07     0.0
    0.143500    2.2537074986630D+07     0.0
    0.144000    2.2374517347592D+07     0.0
    0.144500    2.2213648847186D+07     0.0
    0.145000    2.2054446165185D+07     0.0
    0.145500    2.1896886382055D+07     0.0
    0.146000    2.1740946970721D+07     0.0
    0.146500    2.1586605788537D+07     0.0
    0.147000    2.1433841069445D+07     0.0
    0.147500    2.1282631416322D+07     0.0
    0.148000    2.1132955793501D+07     0.0
    0.148500    2.0984793519481D+07     0.0
    0.149000    2.0838124259790D+07     0.0
    0.149500    2.0692928020034D+07     0.0
    0.150000    2.0549185139093D+07     0.0
    0.150500    2.0406876282485D+07     0.0
    0.151000    2.0265982435877D+07     0.0
    0.151500    2.0126484898750D+07     0.0
    0.152000    1.9988365278209D+07     0.0
    0.152500    1.9851605482932D+07     0.0
    0.153000    1.9716187717263D+07     0.0
    0.153500    1.9582094475435D+07     0.0
    0.154000    1.9449308535920D+07     0.0
    0.154500    1.9317812955924D+07     0.0
    0.155000    1.9187591065983D+07     0.0
    0.155500    1.9058626464696D+07     0.0
    0.156000    1.8930903013576D+07     0.0
    0.156500    1.8804404832006D+07     0.0
    0.157000    1.8679116292320D+07     0.0
    0.157500    1.8555022014979D+07     0.0
    0.158000    1.8432106863869D+07     0.0
    0.158500    1.8310355941691D+07     0.0
    0.159000    1.8189754585458D+07     0.0
    0.159500    1.8070288362089D+07     0.0
    0.160000    1.7951943064100D+07     0.0
    0.160500    1.7834704705390D+07     0.0
    0.161000    1.7718559517115D+07     0.0
    0.161500    1.7603493943655D+07     0.0
    0.162000    1.7489494638666D+07     0.0
    0.162500    1.7376548461218D+07     0.0
    0.163000    1.7264642472016D+07     0.0
    0.163500    1.7153763929700D+07     0.0
    0.164000    1.7043900287226D+07     0.0
    0.164500    1.6935039188323D+07     0.0
    0.165000    1.6827168464028D+07     0.0
    0.165500    1.6720276129286D+07     0.0
    0.166000    1.6614350379632D+07     0.0
    0.166500    1.6509379587936D+07     0.0
    0.167000    1.6405352301217D+07     0.0
    0.167500    1.6302257237528D+07     0.0
    0.168000    1.6200083282900D+07     0.0
    0.168500    1.6098819488352D+07     0.0
    0.169000    1.5998455066963D+07     0.0
    0.169500    1.5898979391003D+07     0.0
    0.170000    1.5800381989129D+07     0.0
    0.170500    1.5702652543627D+07     0.0
    0.171000    1.5605780887724D+07     0.0
    0.171500    1.5509757002941D+07     0.0
    0.172000    1.5414571016513D+07     0.0
    0.172500    1.5320213198853D+07     0.0
    0.173000    1.5226673961067D+07     0.0
    0.173500    1.5133943852527D+07     0.0
    0.174000    1.5042013558482D+07     0.0
    0.174500    1.4950873897724D+07     0.0
    0.175000    1.4860515820302D+07     0.0
    0.175500    1.4770930405273D+07     0.0
    0.176000    1.4682108858509D+07     0.0
    0.176500    1.4594042510536D+07     0.0
    0.177000    1.4506722814426D+07     0.0
    0.177500    1.4420141343723D+07     0.0
    0.178000    1.4334289790415D+07     0.0
    0.178500    1.4249159962942D+07     0.0
    0.179000    1.4164743784242D+07     0.0
    0.179500    1.4081033289845D+07     0.0
    0.180000    1.3998020625987D+07     0.0
    0.180500    1.3915698047777D+07     0.0
    0.181000    1.3834057917389D+07     0.0
    0.181500    1.3753092702294D+07     0.0
    0.182000    1.3672794973524D+07     0.0
    0.182500    1.3593157403970D+07     0.0
    0.183000    1.3514172766708D+07     0.0
    0.183500    1.3435833933369D+07     0.0
    0.184000    1.3358133872526D+07     0.0
    0.184500    1.3281065648118D+07     0.0
    0.185000    1.3204622417905D+07     0.0
    0.185500    1.3128797431954D+07     0.0
    0.186000    1.3053584031140D+07     0.0
    0.186500    1.2978975645698D+07     0.0
    0.187000    1.2904965793778D+07     0.0
    0.187500    1.2831548080045D+07     0.0
    0.188000    1.2758716194298D+07     0.0
    0.188500    1.2686463910111D+07     0.0
    0.189000    1.2614785083506D+07     0.0
    0.189500    1.2543673651648D+07     0.0
    0.190000    1.2473123631561D+07     0.0
    0.190500    1.2403129118875D+07     0.0
    0.191000    1.2333684286584D+07     0.0
    0.191500    1.2264783383841D+07     0.0
    0.192000    1.2196420734763D+07     0.0
    0.192500    1.2128590737267D+07     0.0
    0.193000    1.2061287861917D+07     0.0
    0.193500    1.1994506650801D+07     0.0
    0.194000    1.1928241716426D+07     0.0
    0.194500    1.1862487740628D+07     0.0
    0.195000    1.1797239473508D+07     0.0
    0.195500    1.1732491732383D+07     0.0
    0.196000    1.1668239400758D+07     0.0
    0.196500    1.1604477427314D+07     0.0
    0.197000    1.1541200824916D+07     0.0
    0.197500    1.1478404669636D+07     0.0
    0.198000    1.1416084099800D+07     0.0
    0.198500    1.1354234315041D+07     0.0
    0.199000    1.1292850575378D+07     0.0
    0.199500    1.1231928200306D+07     0.0
    0.200000    1.1171462567907D+07     0.0
    0.200500    1.1111449113969D+07     0.0
    0.201000    1.1051883331125D+07     0.0
    0.201500    1.0992760768009D+07     0.0
    0.202000    1.0934077028423D+07     0.0
    0.202500    1.0875827770519D+07     0.0
    0.203000    1.0818008705993D+07     0.0
    0.203500    1.0760615599301D+07     0.0
    0.204000    1.0703644266880D+07     0.0
    0.204500    1.0647090576383D+07     0.0
    0.205000    1.0590950445933D+07     0.0
    0.205500    1.0535219843382D+07     0.0
    0.206000    1.0479894785593D+07     0.0
    0.206500    1.0424971337719D+07     0.0
    0.207000    1.0370445612511D+07     0.0
    0.207500    1.0316313769624D+07     0.0
    0.208000    1.0262572014942D+07     0.0
    0.208500    1.0209216599914D+07     0.0
    0.209000    1.0156243820900D+07     0.0
    0.209500    1.0103650018522D+07     0.0
    0.210000    1.0051431577040D+07     0.0
    0.210500    9.9995849237219D+06     0.0
    0.211000    9.9481065282377D+06     0.0
    0.211500    9.8969929020542D+06     0.0
    0.212000    9.8462405978453D+06     0.0
    0.212500    9.7958462089088D+06     0.0
    0.213000    9.7458063685937D+06     0.0
    0.213500    9.6961177497391D+06     0.0
    0.214000    9.6467770641184D+06     0.0
    0.214500    9.5977810618946D+06     0.0
    0.215000    9.5491265310862D+06     0.0
    0.215500    9.5008102970380D+06     0.0
    0.216000    9.4528292219030D+06     0.0
    0.216500    9.4051802041328D+06     0.0
    0.217000    9.3578601779747D+06     0.0
    0.217500    9.3108661129784D+06     0.0
    0.218000    9.2641950135085D+06     0.0
    0.218500    9.2178439182685D+06     0.0
    0.219000    9.1718098998282D+06     0.0
    0.219500    9.1260900641619D+06     0.0
    0.220000    9.0806815501915D+06     0.0
    0.220500    9.0355815293389D+06     0.0
    0.221000    8.9907872050844D+06     0.0
    0.221500    8.9462958125314D+06     0.0
    0.222000    8.9021046179808D+06     0.0
    0.222500    8.8582109185077D+06     0.0
    0.223000    8.8146120415489D+06     0.0
    0.223500    8.7713053444944D+06     0.0
    0.224000    8.7282882142860D+06     0.0
    0.224500    8.6855580670227D+06     0.0
    0.225000    8.6431123475708D+06     0.0
    0.225500    8.6009485291818D+06     0.0
    0.226000    8.5590641131151D+06     0.0
    0.226500    8.5174566282664D+06     0.0
    0.227000    8.4761236308032D+06     0.0
    0.227500    8.4350627038037D+06     0.0
    0.228000    8.3942714569032D+06     0.0
    0.228500    8.3537475259455D+06     0.0
    0.229000    8.3134885726386D+06     0.0
    0.229500    8.2734922842169D+06     0.0
    0.230000    8.2337563731079D+06     0.0
    0.230500    8.1942785766038D+06     0.0
    0.231000    8.1550566565386D+06     0.0
    0.231500    8.1160883989701D+06     0.0
    0.232000    8.0773716138664D+06     0.0
    0.232500    8.0389041347963D+06     0.0
    0.233000    8.0006838186263D+06     0.0
    0.233500    7.9627085452208D+06     0.0
    0.234000    7.9249762171461D+06     0.0
    0.234500    7.8874847593818D+06     0.0
    0.235000    7.8502321190318D+06     0.0
    0.235500    7.8132162650448D+06     0.0
    0.236000    7.7764351879345D+06     0.0
    0.236500    7.7398868995070D+06     0.0
    0.237000    7.7035694325907D+06     0.0
    0.237500    7.6674808407703D+06     0.0
    0.238000    7.6316191981251D+06     0.0
    0.238500    7.5959825989716D+06     0.0
    0.239000    7.5605691576083D+06     0.0
    0.239500    7.5253770080658D+06     0.0
    0.240000    7.4904043038599D+06     0.0
    0.240500    7.4556492177483D+06     0.0
    0.241000    7.4211099414909D+06     0.0
    0.241500    7.3867846856131D+06     0.0
    0.242000    7.3526716791740D+06     0.0
    0.242500    7.3187691695359D+06     0.0
    0.243000    7.2850754221388D+06     0.0
    0.243500    7.2515887202772D+06     0.0
    0.244000    7.2183073648801D+06     0.0
    0.244500    7.1852296742956D+06     0.0
    0.245000    7.1523539840755D+06     0.0
    0.245500    7.1196786467671D+06     0.0
    0.246000    7.0872020317037D+06     0.0
    0.246500    7.0549225248019D+06     0.0
    0.247000    7.0228385283586D+06     0.0
    0.247500    6.9909484608530D+06     0.0
    0.248000    6.9592507567508D+06     0.0
    0.248500    6.9277438663105D+06     0.0
    0.249000    6.8964262553929D+06     0.0
    0.249500    6.8652964052745D+06     0.0
    0.250000    6.8343528124605D+06     0.0
    0.250500    6.8035939885038D+06     0.0
    0.251000    6.7730184598244D+06     0.0
    0.251500    6.7426247675316D+06     0.0
    0.252000    6.7124114672493D+06     0.0
    0.252500    6.6823771289437D+06     0.0
    0.253000    6.6525203367521D+06     0.0
    0.253500    6.6228396888162D+06     0.0
    0.254000    6.5933337971153D+06     0.0
    0.254500    6.5640012873047D+06     0.0
    0.255000    6.5348407985524D+06     0.0
    0.255500    6.5058509833824D+06     0.0
    0.256000    6.4770305075169D+06     0.0
    0.256500    6.4483780497217D+06     0.0
    0.257000    6.4198923016546D+06     0.0
    0.257500    6.3915719677141D+06     0.0
    0.258000    6.3634157648918D+06     0.0
    0.258500    6.3354224226258D+06     0.0
    0.259000    6.3075906826560D+06     0.0
    0.259500    6.2799192988833D+06     0.0
    0.260000    6.2524070372265D+06     0.0
    0.260500    6.2250526754862D+06     0.0
    0.261000    6.1978550032067D+06     0.0
    0.261500    6.1708128215418D+06     0.0
    0.262000    6.1439249431212D+06     0.0
    0.262500    6.1171901919197D+06     0.0
    0.263000    6.0906074031271D+06     0.0
    0.263500    6.0641754230211D+06     0.0
    0.264000    6.0378931088403D+06     0.0
    0.264500    6.0117593286603D+06     0.0
    0.265000    5.9857729612710D+06     0.0
    0.265500    5.9599328960550D+06     0.0
    0.266000    5.9342380328676D+06     0.0
    0.266500    5.9086872819202D+06     0.0
    0.267000    5.8832795636624D+06     0.0
    0.267500    5.8580138086676D+06     0.0
    0.268000    5.8328889575196D+06     0.0
    0.268500    5.8079039607005D+06     0.0
    0.269000    5.7830577784799D+06     0.0
    0.269500    5.7583493808069D+06     0.0
    0.270000    5.7337777472004D+06     0.0
    0.270500    5.7093418666453D+06     0.0
    0.271000    5.6850407374856D+06     0.0
    0.271500    5.6608733673217D+06     0.0
    0.272000    5.6368387729082D+06     0.0
    0.272500    5.6129359800531D+06     0.0
    0.273000    5.5891640235173D+06     0.0
    0.273500    5.5655219469176D+06     0.0
    0.274000    5.5420088026286D+06     0.0
    0.274500    5.5186236516872D+06     0.0
    0.275000    5.4953655636982D+06     0.0
    0.275500    5.4722336167404D+06     0.0
    0.276000    5.4492268972749D+06     0.0
    0.276500    5.4263445000535D+06     0.0
    0.277000    5.4035855280293D+06     0.0
    0.277500    5.3809490922676D+06     0.0
    0.278000    5.3584343118582D+06     0.0
    0.278500    5.3360403138292D+06     0.0
    0.279000    5.3137662330610D+06     0.0
    0.279500    5.2916112122022D+06     0.0
    0.280000    5.2695744015867D+06     0.0
    0.280500    5.2476549591504D+06     0.0
    0.281000    5.2258520503506D+06     0.0
    0.281500    5.2041648480860D+06     0.0
    0.282000    5.1825925326163D+06     0.0
    0.282500    5.1611342914852D+06     0.0
    0.283000    5.1397893194422D+06     0.0
    0.283500    5.1185568183667D+06     0.0
    0.284000    5.0974359971926D+06     0.0
    0.284500    5.0764260718330D+06     0.0
    0.285000    5.0555262651081D+06     0.0
    0.285500    5.0347358066708D+06     0.0
    0.286000    5.0140539329365D+06     0.0
    0.286500    4.9934798870111D+06     0.0
    0.287000    4.9730129186214D+06     0.0
    0.287500    4.9526522840457D+06     0.0
    0.288000    4.9323972460460D+06     0.0
    0.288500    4.9122470737997D+06     0.0
    0.289000    4.8922010428334D+06     0.0
    0.289500    4.8722584349566D+06     0.0
    0.290000    4.8524185381973D+06     0.0
    0.290500    4.8326806467371D+06     0.0
    0.291000    4.8130440608477D+06     0.0
    0.291500    4.7935080868282D+06     0.0
    0.292000    4.7740720369435D+06     0.0
    0.292500    4.7547352293620D+06     0.0
    0.293000    4.7354969880963D+06     0.0
    0.293500    4.7163566429422D+06     0.0
    0.294000    4.6973135294206D+06     0.0
    0.294500    4.6783669887185D+06     0.0
    0.295000    4.6595163676313D+06     0.0
    0.295500    4.6407610185056D+06     0.0
    0.296000    4.6221002991838D+06     0.0
    0.296500    4.6035335729473D+06     0.0
    0.297000    4.5850602084618D+06     0.0
    0.297500    4.5666795797231D+06     0.0
    0.298000    4.5483910660035D+06     0.0
    0.298500    4.5301940517980D+06     0.0
    0.299000    4.5120879267724D+06     0.0
    0.299500    4.4940720857114D+06     0.0
    0.300000    4.4761459284668D+06     0.0
    0.300500    4.4583088599077D+06     0.0
    0.301000    4.4405602898694D+06     0.0
    0.301500    4.4228996331047D+06     0.0
    0.302000    4.4053263092344D+06     0.0
    0.302500    4.3878397426995D+06     0.0
    0.303000    4.3704393627127D+06     0.0
    0.303500    4.3531246032120D+06     0.0
    0.304000    4.3358949028129D+06     0.0
    0.304500    4.3187497047632D+06     0.0
    0.305000    4.3016884568972D+06     0.0
    0.305500    4.2847106115897D+06     0.0
    0.306000    4.2678156257127D+06     0.0
    0.306500    4.2510029605904D+06     0.0
    0.307000    4.2342720819558D+06     0.0
    0.307500    4.2176224599074D+06     0.0
    0.308000    4.2010535688678D+06     0.0
    0.308500    4.1845648875395D+06     0.0
    0.309000    4.1681558988652D+06     0.0
    0.309500    4.1518260899854D+06     0.0
    0.310000    4.1355749521982D+06     0.0
    0.310500    4.1194019809192D+06     0.0
    0.311000    4.1033066756410D+06     0.0
    0.311500    4.0872885398946D+06     0.0
    0.312000    4.0713470812104D+06     0.0
    0.312500    4.0554818110790D+06     0.0
    0.313000    4.0396922449142D+06     0.0
    0.313500    4.0239779020145D+06     0.0
    0.314000    4.0083383055266D+06     0.0
    0.314500    3.9927729824079D+06     0.0
    0.315000    3.9772814633909D+06     0.0
    0.315500    3.9618632829468D+06     0.0
    0.316000    3.9465179792496D+06     0.0
    0.316500    3.9312450941418D+06     0.0
    0.317000    3.9160441730987D+06     0.0
    0.317500    3.9009147651948D+06     0.0
    0.318000    3.8858564230689D+06     0.0
    0.318500    3.8708687028915D+06     0.0
    0.319000    3.8559511643305D+06     0.0
    0.319500    3.8411033705189D+06     0.0
    0.320000    3.8263248880218D+06     0.0
    0.320500    3.8116152868050D+06     0.0
    0.321000    3.7969741402023D+06     0.0
    0.321500    3.7824010248841D+06     0.0
    0.322000    3.7678955208270D+06     0.0
    0.322500    3.7534572112816D+06     0.0
    0.323000    3.7390856827439D+06     0.0
    0.323500    3.7247805249232D+06     0.0
    0.324000    3.7105413307135D+06     0.0
    0.324500    3.6963676961638D+06     0.0
    0.325000    3.6822592204481D+06     0.0
    0.325500    3.6682155058382D+06     0.0
    0.326000    3.6542361576730D+06     0.0
    0.326500    3.6403207843321D+06     0.0
    0.327000    3.6264689972067D+06     0.0
    0.327500    3.6126804106725D+06     0.0
    0.328000    3.5989546420620D+06     0.0
    0.328500    3.5852913116378D+06     0.0
    0.329000    3.5716900425654D+06     0.0
    0.329500    3.5581504608868D+06     0.0
    0.330000    3.5446721954946D+06     0.0
    0.330500    3.5312548781059D+06     0.0
    0.331000    3.5178981432362D+06     0.0
    0.331500    3.5046016281744D+06     0.0
    0.332000    3.4913649729583D+06     0.0
    0.332500    3.4781878203481D+06     0.0
    0.333000    3.4650698158036D+06     0.0
    0.333500    3.4520106074586D+06     0.0
    0.334000    3.4390098460972D+06     0.0
    0.334500    3.4260671851302D+06     0.0
    0.335000    3.4131822805714D+06     0.0
    0.335500    3.4003547910139D+06     0.0
    0.336000    3.3875843776074D+06     0.0
    0.336500    3.3748707040353D+06     0.0
    0.337000    3.3622134364919D+06     0.0
    0.337500    3.3496122436602D+06     0.0
    0.338000    3.3370667966897D+06     0.0
    0.338500    3.3245767691742D+06     0.0
    0.339000    3.3121418371307D+06     0.0
    0.339500    3.2997616789773D+06     0.0