variables = "r", "V(r) ", "Uncertainty"
zone T = "State 1 V(r)   out                 "

    0.000500    1.9573784680073D+12     0.0
    0.001000    4.8928768629182D+11     0.0
    0.001500    2.1743582238818D+11     0.0
    0.002500    7.8258553594374D+10     0.0
    0.003000    5.4339822667085D+10     0.0
    0.003500    3.9918423664489D+10     0.0
    0.004000    3.0558926055507D+10     0.0
    0.004500    2.4142458482051D+10     0.0
    0.005000    1.9553063650969D+10     0.0
    0.005500    1.6157627675692D+10     0.0
    0.006000    1.3575270035315D+10     0.0
    0.006500    1.1565705154620D+10     0.0
    0.007000    9.9712694078932D+09     0.0
    0.007500    8.6850345803851D+09     0.0
    0.008000    7.6324066332099D+09     0.0
    0.008500    6.7600648911553D+09     0.0
    0.009000    6.0290763702594D+09     0.0
    0.009500    5.4104766382608D+09     0.0
    0.010000    4.8823567948465D+09     0.0
    0.010500    4.4278972689192D+09     0.0
    0.011000    4.0340123893078D+09     0.0
    0.011500    3.6903981426890D+09     0.0
    0.012000    3.3888516593995D+09     0.0
    0.012500    3.1227772935490D+09     0.0
    0.013000    2.8868230362304D+09     0.0
    0.013500    2.6766093894822D+09     0.0
    0.014000    2.4885247740268D+09     0.0
    0.014500    2.3195694450076D+09     0.0
    0.015000    2.1672352035801D+09     0.0
    0.015500    2.0294118208061D+09     0.0
    0.016000    1.9043136035296D+09     0.0
    0.016500    1.7904212956167D+09     0.0
    0.017000    1.6864357608789D+09     0.0
    0.017500    1.5912407942912D+09     0.0
    0.018000    1.5038730619315D+09     0.0
    0.018500    1.4234976496634D+09     0.0
    0.019000    1.3493880556983D+09     0.0
    0.019500    1.2809097274317D+09     0.0
    0.020000    1.2175064427615D+09     0.0
    0.020500    1.1586889877783D+09     0.0
    0.021000    1.1040256987398D+09     0.0
    0.021500    1.0531345255952D+09     0.0
    0.022000    1.0056763436173D+09     0.0
    0.022500    9.6134929376381D+08     0.0
    0.023000    9.1988397483603D+08     0.0
    0.023500    8.8103934401464D+08     0.0
    0.024000    8.4459920895799D+08     0.0
    0.024500    8.1036921587947D+08     0.0
    0.025000    7.7817425505261D+08     0.0
    0.025500    7.4785621891387D+08     0.0
    0.026000    7.1927205904496D+08     0.0
    0.026500    6.9229209735131D+08     0.0
    0.027000    6.6679855412966D+08     0.0
    0.027500    6.4268426176700D+08     0.0
    0.028000    6.1985153778983D+08     0.0
    0.028500    5.9821119509805D+08     0.0
    0.029000    5.7768167062408D+08     0.0
    0.029500    5.5818825649712D+08     0.0
    0.030000    5.3966242015959D+08     0.0
    0.030500    5.2204120186615D+08     0.0
    0.031000    5.0526667966035D+08     0.0
    0.031500    4.8928549332980D+08     0.0
    0.032000    4.7404842002401D+08     0.0
    0.032500    4.5950999522646D+08     0.0
    0.033000    4.4562817362400D+08     0.0
    0.033500    4.3236402514620D+08     0.0
    0.034000    4.1968146206691D+08     0.0
    0.034500    4.0754699359264D+08     0.0
    0.035000    3.9592950481896D+08     0.0
    0.035500    3.8480005732845D+08     0.0
    0.036000    3.7413170904211D+08     0.0
    0.036500    3.6389935122875D+08     0.0
    0.037000    3.5407956082993D+08     0.0
    0.037500    3.4465046647729D+08     0.0
    0.038000    3.3559162677098D+08     0.0
    0.038500    3.2688391955285D+08     0.0
    0.039000    3.1850944105440D+08     0.0
    0.039500    3.1045141392547D+08     0.0
    0.040000    3.0269410326124D+08     0.0
    0.040500    2.9522273984243D+08     0.0
    0.041000    2.8802344988895D+08     0.0
    0.041500    2.8108319070338D+08     0.0
    0.042000    2.7438969164617D+08     0.0
    0.042500    2.6793139994399D+08     0.0
    0.043000    2.6169743088404D+08     0.0
    0.043500    2.5567752199336D+08     0.0
    0.044000    2.4986199084284D+08     0.0
    0.044500    2.4424169615198D+08     0.0
    0.045000    2.3880800190252D+08     0.0
    0.045500    2.3355274419796D+08     0.0
    0.046000    2.2846820063129D+08     0.0
    0.046500    2.2354706194651D+08     0.0
    0.047000    2.1878240579960D+08     0.0
    0.047500    2.1416767244308D+08     0.0
    0.048000    2.0969664217475D+08     0.0
    0.048500    2.0536341440565D+08     0.0
    0.049000    2.0116238821607D+08     0.0
    0.049500    1.9708824427946D+08     0.0
    0.050000    1.9313592804585D+08     0.0
    0.050500    1.8930063408511D+08     0.0
    0.051000    1.8557779149971D+08     0.0
    0.051500    1.8196305032430D+08     0.0
    0.052000    1.7845226883644D+08     0.0
    0.052500    1.7504150170943D+08     0.0
    0.053000    1.7172698894415D+08     0.0
    0.053500    1.6850514552157D+08     0.0
    0.054000    1.6537255172315D+08     0.0
    0.054500    1.6232594407004D+08     0.0
    0.055000    1.5936220683654D+08     0.0
    0.055500    1.5647836409629D+08     0.0
    0.056000    1.5367157226371D+08     0.0
    0.056500    1.5093911309530D+08     0.0
    0.057000    1.4827838711912D+08     0.0
    0.057500    1.4568690746248D+08     0.0
    0.058000    1.4316229405060D+08     0.0
    0.058500    1.4070226815097D+08     0.0
    0.059000    1.3830464724011D+08     0.0
    0.059500    1.3596734017106D+08     0.0
    0.060000    1.3368834262168D+08     0.0
    0.060500    1.3146573280524D+08     0.0
    0.061000    1.2929766742624D+08     0.0
    0.061500    1.2718237786546D+08     0.0
    0.062000    1.2511816657961D+08     0.0
    0.062500    1.2310340370182D+08     0.0
    0.063000    1.2113652383032D+08     0.0
    0.063500    1.1921602299345D+08     0.0
    0.064000    1.1734045578012D+08     0.0
    0.064500    1.1550843262533D+08     0.0
    0.065000    1.1371861724140D+08     0.0
    0.065500    1.1196972418598D+08     0.0
    0.066000    1.1026051655856D+08     0.0
    0.066500    1.0858980381780D+08     0.0
    0.067000    1.0695643971252D+08     0.0
    0.067500    1.0535932031959D+08     0.0
    0.068000    1.0379738218247D+08     0.0
    0.068500    1.0226960054454D+08     0.0
    0.069000    1.0077498767178D+08     0.0
    0.069500    9.9312591259601D+07     0.0
    0.070000    9.7881492919154D+07     0.0
    0.070500    9.6480806738426D+07     0.0
    0.071000    9.5109677914156D+07     0.0
    0.071500    9.3767281450451D+07     0.0
    0.072000    9.2452820920487D+07     0.0
    0.072500    9.1165527287790D+07     0.0
    0.073000    8.9904657783880D+07     0.0
    0.073500    8.8669494839171D+07     0.0
    0.074000    8.7459345064316D+07     0.0
    0.074500    8.6273538279230D+07     0.0
    0.075000    8.5111426587329D+07     0.0
    0.075500    8.3972383492527D+07     0.0
    0.076000    8.2855803056797D+07     0.0
    0.076500    8.1761099096164D+07     0.0
    0.077000    8.0687704413128D+07     0.0
    0.077500    7.9635070063665D+07     0.0
    0.078000    7.8602664657018D+07     0.0
    0.078500    7.7589973686628D+07     0.0
    0.079000    7.6596498890627D+07     0.0
    0.079500    7.5621757640387D+07     0.0
    0.080000    7.4665282355780D+07     0.0
    0.080500    7.3726619945773D+07     0.0
    0.081000    7.2805331273124D+07     0.0
    0.081500    7.1900990642028D+07     0.0
    0.082000    7.1013185307550D+07     0.0
    0.082500    7.0141515005839D+07     0.0
    0.083000    6.9285591504073D+07     0.0
    0.083500    6.8445038169253D+07     0.0
    0.084000    6.7619489554893D+07     0.0
    0.084500    6.6808591004794D+07     0.0
    0.085000    6.6011998273094D+07     0.0
    0.085500    6.5229377159832D+07     0.0
    0.086000    6.4460403161307D+07     0.0
    0.086500    6.3704761134549D+07     0.0
    0.087000    6.2962144975258D+07     0.0
    0.087500    6.2232257308592D+07     0.0
    0.088000    6.1514809192221D+07     0.0
    0.088500    6.0809519831100D+07     0.0
    0.089000    6.0116116303440D+07     0.0
    0.089500    5.9434333297357D+07     0.0
    0.090000    5.8763912857745D+07     0.0
    0.090500    5.8104604142920D+07     0.0
    0.091000    5.7456163190588D+07     0.0
    0.091500    5.6818352692768D+07     0.0
    0.092000    5.6190941779238D+07     0.0
    0.092500    5.5573705809166D+07     0.0
    0.093000    5.4966426170558D+07     0.0
    0.093500    5.4368890087217D+07     0.0
    0.094000    5.3780890432846D+07     0.0
    0.094500    5.3202225552041D+07     0.0
    0.095000    5.2632699087858D+07     0.0
    0.095500    5.2072119815689D+07     0.0
    0.096000    5.1520301483174D+07     0.0
    0.096500    5.0977062655923D+07     0.0
    0.097000    5.0442226568776D+07     0.0
    0.097500    4.9915620982395D+07     0.0
    0.098000    4.9397078044984D+07     0.0
    0.098500    4.8886434158890D+07     0.0
    0.099000    4.8383529851921D+07     0.0
    0.099500    4.7888209653183D+07     0.0
    0.100000    4.7400321973249D+07     0.0
    0.100500    4.6919718988502D+07     0.0
    0.101000    4.6446256529468D+07     0.0
    0.101500    4.5979793972990D+07     0.0
    0.102000    4.5520194138114D+07     0.0
    0.102500    4.5067323185500D+07     0.0
    0.103000    4.4621050520260D+07     0.0
    0.103500    4.4181248698068D+07     0.0
    0.104000    4.3747793334430D+07     0.0
    0.104500    4.3320563016978D+07     0.0
    0.105000    4.2899439220691D+07     0.0
    0.105500    4.2484306225923D+07     0.0
    0.106000    4.2075051039124D+07     0.0
    0.106500    4.1671563316173D+07     0.0
    0.107000    4.1273735288206D+07     0.0
    0.107500    4.0881461689860D+07     0.0
    0.108000    4.0494639689833D+07     0.0
    0.108500    4.0113168823686D+07     0.0
    0.109000    3.9736950928798D+07     0.0
    0.109500    3.9365890081390D+07     0.0
    0.110000    3.8999892535555D+07     0.0
    0.110500    3.8638866664221D+07     0.0
    0.111000    3.8282722901959D+07     0.0
    0.111500    3.7931373689596D+07     0.0
    0.112000    3.7584733420549D+07     0.0
    0.112500    3.7242718388825D+07     0.0
    0.113000    3.6905246738639D+07     0.0
    0.113500    3.6572238415570D+07     0.0
    0.114000    3.6243615119219D+07     0.0
    0.114500    3.5919300257320D+07     0.0
    0.115000    3.5599218901232D+07     0.0
    0.115500    3.5283297742787D+07     0.0
    0.116000    3.4971465052433D+07     0.0
    0.116500    3.4663650638637D+07     0.0
    0.117000    3.4359785808497D+07     0.0
    0.117500    3.4059803329529D+07     0.0
    0.118000    3.3763637392578D+07     0.0
    0.118500    3.3471223575834D+07     0.0
    0.119000    3.3182498809898D+07     0.0
    0.119500    3.2897401343866D+07     0.0
    0.120000    3.2615870712414D+07     0.0
    0.120500    3.2337847703820D+07     0.0
    0.121000    3.2063274328929D+07     0.0
    0.121500    3.1792093790990D+07     0.0
    0.122000    3.1524250456376D+07     0.0
    0.122500    3.1259689826129D+07     0.0
    0.123000    3.0998358508312D+07     0.0
    0.123500    3.0740204191153D+07     0.0
    0.124000    3.0485175616938D+07     0.0
    0.124500    3.0233222556636D+07     0.0
    0.125000    2.9984295785243D+07     0.0
    0.125500    2.9738347057800D+07     0.0
    0.126000    2.9495329086088D+07     0.0
    0.126500    2.9255195515960D+07     0.0
    0.127000    2.9017900905298D+07     0.0
    0.127500    2.8783400702573D+07     0.0
    0.128000    2.8551651225997D+07     0.0
    0.128500    2.8322609643236D+07     0.0
    0.129000    2.8096233951671D+07     0.0
    0.129500    2.7872482959200D+07     0.0
    0.130000    2.7651316265550D+07     0.0
    0.130500    2.7432694244087D+07     0.0
    0.131000    2.7216578024123D+07     0.0
    0.131500    2.7002929473677D+07     0.0
    0.132000    2.6791711182708D+07     0.0
    0.132500    2.6582886446783D+07     0.0
    0.133000    2.6376419251171D+07     0.0
    0.133500    2.6172274255359D+07     0.0
    0.134000    2.5970416777976D+07     0.0
    0.134500    2.5770812782093D+07     0.0
    0.135000    2.5573428860925D+07     0.0
    0.135500    2.5378232223882D+07     0.0
    0.136000    2.5185190682993D+07     0.0
    0.136500    2.4994272639670D+07     0.0
    0.137000    2.4805447071811D+07     0.0
    0.137500    2.4618683521237D+07     0.0
    0.138000    2.4433952081436D+07     0.0
    0.138500    2.4251223385625D+07     0.0
    0.139000    2.4070468595111D+07     0.0
    0.139500    2.3891659387942D+07     0.0
    0.140000    2.3714767947842D+07     0.0
    0.140500    2.3539766953420D+07     0.0
    0.141000    2.3366629567650D+07     0.0
    0.141500    2.3195329427607D+07     0.0
    0.142000    2.3025840634462D+07     0.0
    0.142500    2.2858137743711D+07     0.0
    0.143000    2.2692195755658D+07     0.0
    0.143500    2.2527990106114D+07     0.0
    0.144000    2.2365496657336D+07     0.0
    0.144500    2.2204691689178D+07     0.0
    0.145000    2.2045551890454D+07     0.0
    0.145500    2.1888054350512D+07     0.0
    0.146000    2.1732176551011D+07     0.0
    0.146500    2.1577896357889D+07     0.0
    0.147000    2.1425192013528D+07     0.0
    0.147500    2.1274042129101D+07     0.0
    0.148000    2.1124425677097D+07     0.0
    0.148500    2.0976321984035D+07     0.0
    0.149000    2.0829710723328D+07     0.0
    0.149500    2.0684571908335D+07     0.0
    0.150000    2.0540885885563D+07     0.0
    0.150500    2.0398633328026D+07     0.0
    0.151000    2.0257795228768D+07     0.0
    0.151500    2.0118352894523D+07     0.0
    0.152000    1.9980287939531D+07     0.0
    0.152500    1.9843582279487D+07     0.0
    0.153000    1.9708218125639D+07     0.0
    0.153500    1.9574177979010D+07     0.0
    0.154000    1.9441444624757D+07     0.0
    0.154500    1.9310001126656D+07     0.0
    0.155000    1.9179830821712D+07     0.0
    0.155500    1.9050917314889D+07     0.0
    0.156000    1.8923244473962D+07     0.0
    0.156500    1.8796796424478D+07     0.0
    0.157000    1.8671557544833D+07     0.0
    0.157500    1.8547512461460D+07     0.0
    0.158000    1.8424646044117D+07     0.0
    0.158500    1.8302943401289D+07     0.0
    0.159000    1.8182389875680D+07     0.0
    0.159500    1.8062971039811D+07     0.0
    0.160000    1.7944672691715D+07     0.0
    0.160500    1.7827480850720D+07     0.0
    0.161000    1.7711381753327D+07     0.0
    0.161500    1.7596361849178D+07     0.0
    0.162000    1.7482407797114D+07     0.0
    0.162500    1.7369506461305D+07     0.0
    0.163000    1.7257644907481D+07     0.0
    0.163500    1.7146810399230D+07     0.0
    0.164000    1.7036990394381D+07     0.0
    0.164500    1.6928172541463D+07     0.0
    0.165000    1.6820344676236D+07     0.0
    0.165500    1.6713494818302D+07     0.0
    0.166000    1.6607611167781D+07     0.0
    0.166500    1.6502682102059D+07     0.0
    0.167000    1.6398696172605D+07     0.0
    0.167500    1.6295642101855D+07     0.0
    0.168000    1.6193508780156D+07     0.0
    0.168500    1.6092285262782D+07     0.0
    0.169000    1.5991960767003D+07     0.0
    0.169500    1.5892524669218D+07     0.0
    0.170000    1.5793966502153D+07     0.0
    0.170500    1.5696275952105D+07     0.0
    0.171000    1.5599442856249D+07     0.0
    0.171500    1.5503457200001D+07     0.0
    0.172000    1.5408309114433D+07     0.0
    0.172500    1.5313988873740D+07     0.0
    0.173000    1.5220486892754D+07     0.0
    0.173500    1.5127793724521D+07     0.0
    0.174000    1.5035900057911D+07     0.0
    0.174500    1.4944796715285D+07     0.0
    0.175000    1.4854474650210D+07     0.0
    0.175500    1.4764924945211D+07     0.0
    0.176000    1.4676138809580D+07     0.0
    0.176500    1.4588107577212D+07     0.0
    0.177000    1.4500822704504D+07     0.0
    0.177500    1.4414275768277D+07     0.0
    0.178000    1.4328458463748D+07     0.0
    0.178500    1.4243362602543D+07     0.0
    0.179000    1.4158980110742D+07     0.0
    0.179500    1.4075303026972D+07     0.0
    0.180000    1.3992323500524D+07     0.0
    0.180500    1.3910033789519D+07     0.0
    0.181000    1.3828426259101D+07     0.0
    0.181500    1.3747493379674D+07     0.0
    0.182000    1.3667227725157D+07     0.0
    0.182500    1.3587621971292D+07     0.0
    0.183000    1.3508668893969D+07     0.0
    0.183500    1.3430361367589D+07     0.0
    0.184000    1.3352692363463D+07     0.0
    0.184500    1.3275654948228D+07     0.0
    0.185000    1.3199242282307D+07     0.0
    0.185500    1.3123447618392D+07     0.0
    0.186000    1.3048264299953D+07     0.0
    0.186500    1.2973685759778D+07     0.0
    0.187000    1.2899705518541D+07     0.0
    0.187500    1.2826317183398D+07     0.0
    0.188000    1.2753514446602D+07     0.0
    0.188500    1.2681291084150D+07     0.0
    0.189000    1.2609640954457D+07     0.0
    0.189500    1.2538557997048D+07     0.0
    0.190000    1.2468036231277D+07     0.0
    0.190500    1.2398069755069D+07     0.0
    0.191000    1.2328652743691D+07     0.0
    0.191500    1.2259779448533D+07     0.0
    0.192000    1.2191444195924D+07     0.0
    0.192500    1.2123641385959D+07     0.0
    0.193000    1.2056365491356D+07     0.0
    0.193500    1.1989611056331D+07     0.0
    0.194000    1.1923372695487D+07     0.0
    0.194500    1.1857645092732D+07     0.0
    0.195000    1.1792423000211D+07     0.0
    0.195500    1.1727701237261D+07     0.0
    0.196000    1.1663474689378D+07     0.0
    0.196500    1.1599738307211D+07     0.0
    0.197000    1.1536487105568D+07     0.0
    0.197500    1.1473716162441D+07     0.0
    0.198000    1.1411420618048D+07     0.0
    0.198500    1.1349595673892D+07     0.0
    0.199000    1.1288236591839D+07     0.0
    0.199500    1.1227338693210D+07     0.0
    0.200000    1.1166897357884D+07     0.0
    0.200500    1.1106908023430D+07     0.0
    0.201000    1.1047366184237D+07     0.0
    0.201500    1.0988267390675D+07     0.0
    0.202000    1.0929607248256D+07     0.0
    0.202500    1.0871381416826D+07     0.0
    0.203000    1.0813585609754D+07     0.0
    0.203500    1.0756215593145D+07     0.0
    0.204000    1.0699267185066D+07     0.0
    0.204500    1.0642736254782D+07     0.0
    0.205000    1.0586618722007D+07     0.0
    0.205500    1.0530910556166D+07     0.0
    0.206000    1.0475607775672D+07     0.0
    0.206500    1.0420706447216D+07     0.0
    0.207000    1.0366202685061D+07     0.0
    0.207500    1.0312092650360D+07     0.0
    0.208000    1.0258372550478D+07     0.0
    0.208500    1.0205038638326D+07     0.0
    0.209000    1.0152087211705D+07     0.0
    0.209500    1.0099514612668D+07     0.0
    0.210000    1.0047317226882D+07     0.0
    0.210500    9.9954914830094D+06     0.0
    0.211000    9.9440338520978D+06     0.0
    0.211500    9.8929408469740D+06     0.0
    0.212000    9.8422090216566D+06     0.0
    0.212500    9.7918349707721D+06     0.0
    0.213000    9.7418153289832D+06     0.0
    0.213500    9.6921467704265D+06     0.0
    0.214000    9.6428260081583D+06     0.0
    0.214500    9.5938497936098D+06     0.0
    0.215000    9.5452149160521D+06     0.0
    0.215500    9.4969182020694D+06     0.0
    0.216000    9.4489565150382D+06     0.0
    0.216500    9.4013267546209D+06     0.0
    0.217000    9.3540258562610D+06     0.0
    0.217500    9.3070507906905D+06     0.0
    0.218000    9.2603985634434D+06     0.0
    0.218500    9.2140662143788D+06     0.0
    0.219000    9.1680508172088D+06     0.0
    0.219500    9.1223494790372D+06     0.0
    0.220000    9.0769593399032D+06     0.0
    0.220500    9.0318775723321D+06     0.0
    0.221000    8.9871013808961D+06     0.0
    0.221500    8.9426280017783D+06     0.0
    0.222000    8.8984547023459D+06     0.0
    0.222500    8.8545787807297D+06     0.0
    0.223000    8.8109975654099D+06     0.0
    0.223500    8.7677084148080D+06     0.0
    0.224000    8.7247087168865D+06     0.0
    0.224500    8.6819958887527D+06     0.0
    0.225000    8.6395673762711D+06     0.0
    0.225500    8.5974206536796D+06     0.0
    0.226000    8.5555532232132D+06     0.0
    0.226500    8.5139626147331D+06     0.0
    0.227000    8.4726463853608D+06     0.0
    0.227500    8.4316021191186D+06     0.0
    0.228000    8.3908274265753D+06     0.0
    0.228500    8.3503199444978D+06     0.0
    0.229000    8.3100773355080D+06     0.0
    0.229500    8.2700972877433D+06     0.0
    0.230000    8.2303775145246D+06     0.0
    0.230500    8.1909157540286D+06     0.0
    0.231000    8.1517097689632D+06     0.0
    0.231500    8.1127573462511D+06     0.0
    0.232000    8.0740562967163D+06     0.0
    0.232500    8.0356044547736D+06     0.0
    0.233000    7.9973996781274D+06     0.0
    0.233500    7.9594398474697D+06     0.0
    0.234000    7.9217228661872D+06     0.0
    0.234500    7.8842466600697D+06     0.0
    0.235000    7.8470091770238D+06     0.0
    0.235500    7.8100083867915D+06     0.0
    0.236000    7.7732422806720D+06     0.0
    0.236500    7.7367088712483D+06     0.0
    0.237000    7.7004061921175D+06     0.0
    0.237500    7.6643322976254D+06     0.0
    0.238000    7.6284852626039D+06     0.0
    0.238500    7.5928631821144D+06     0.0
    0.239000    7.5574641711923D+06     0.0
    0.239500    7.5222863645978D+06     0.0
    0.240000    7.4873279165684D+06     0.0
    0.240500    7.4525870005762D+06     0.0
    0.241000    7.4180618090879D+06     0.0
    0.241500    7.3837505533288D+06     0.0
    0.242000    7.3496514630500D+06     0.0
    0.242500    7.3157627862992D+06     0.0
    0.243000    7.2820827891947D+06     0.0
    0.243500    7.2486097557021D+06     0.0
    0.244000    7.2153419874148D+06     0.0
    0.244500    7.1822778033384D+06     0.0
    0.245000    7.1494155396760D+06     0.0
    0.245500    7.1167535496185D+06     0.0
    0.246000    7.0842902031377D+06     0.0
    0.246500    7.0520238867807D+06     0.0
    0.247000    7.0199530034697D+06     0.0
    0.247500    6.9880759723024D+06     0.0
    0.248000    6.9563912283567D+06     0.0
    0.248500    6.9248972224972D+06     0.0
    0.249000    6.8935924211851D+06     0.0
    0.249500    6.8624753062906D+06     0.0
    0.250000    6.8315443749075D+06     0.0
    0.250500    6.8007981391704D+06     0.0
    0.251000    6.7702351260764D+06     0.0
    0.251500    6.7398538773049D+06     0.0
    0.252000    6.7096529490456D+06     0.0
    0.252500    6.6796309118234D+06     0.0
    0.253000    6.6497863503301D+06     0.0
    0.253500    6.6201178632557D+06     0.0
    0.254000    6.5906240631229D+06     0.0
    0.254500    6.5613035761242D+06     0.0
    0.255000    6.5321550419608D+06     0.0
    0.255500    6.5031771136833D+06     0.0
    0.256000    6.4743684575365D+06     0.0
    0.256500    6.4457277528032D+06     0.0
    0.257000    6.4172536916531D+06     0.0
    0.257500    6.3889449789917D+06     0.0
    0.258000    6.3608003323131D+06     0.0
    0.258500    6.3328184815523D+06     0.0
    0.259000    6.3049981689420D+06     0.0
    0.259500    6.2773381488704D+06     0.0
    0.260000    6.2498371877397D+06     0.0
    0.260500    6.2224940638288D+06     0.0
    0.261000    6.1953075671559D+06     0.0
    0.261500    6.1682764993439D+06     0.0
    0.262000    6.1413996734877D+06     0.0
    0.262500    6.1146759140221D+06     0.0
    0.263000    6.0881040565931D+06     0.0
    0.263500    6.0616829479301D+06     0.0
    0.264000    6.0354114457190D+06     0.0
    0.264500    6.0092884184788D+06     0.0
    0.265000    5.9833127454382D+06     0.0
    0.265500    5.9574833164144D+06     0.0
    0.266000    5.9317990316941D+06     0.0
    0.266500    5.9062588019149D+06     0.0
    0.267000    5.8808615479494D+06     0.0
    0.267500    5.8556062007897D+06     0.0
    0.268000    5.8304917014345D+06     0.0
    0.268500    5.8055170007768D+06     0.0
    0.269000    5.7806810594935D+06     0.0
    0.269500    5.7559828479369D+06     0.0
    0.270000    5.7314213460259D+06     0.0
    0.270500    5.7069955431411D+06     0.0
    0.271000    5.6827044380189D+06     0.0
    0.271500    5.6585470386483D+06     0.0
    0.272000    5.6345223621691D+06     0.0
    0.272500    5.6106294347710D+06     0.0
    0.273000    5.5868672915927D+06     0.0
    0.273500    5.5632349766259D+06     0.0
    0.274000    5.5397315426162D+06     0.0
    0.274500    5.5163560509684D+06     0.0
    0.275000    5.4931075716518D+06     0.0
    0.275500    5.4699851831064D+06     0.0
    0.276000    5.4469879721510D+06     0.0
    0.276500    5.4241150338924D+06     0.0
    0.277000    5.4013654716347D+06     0.0
    0.277500    5.3787383967916D+06     0.0
    0.278000    5.3562329287982D+06     0.0
    0.278500    5.3338481950245D+06     0.0
    0.279000    5.3115833306898D+06     0.0
    0.279500    5.2894374787790D+06     0.0
    0.280000    5.2674097899583D+06     0.0
    0.280500    5.2454994224941D+06     0.0
    0.281000    5.2237055421706D+06     0.0
    0.281500    5.2020273222102D+06     0.0
    0.282000    5.1804639431943D+06     0.0
    0.282500    5.1590145929848D+06     0.0
    0.283000    5.1376784666468D+06     0.0
    0.283500    5.1164547663723D+06     0.0
    0.284000    5.0953427014055D+06     0.0
    0.284500    5.0743414879666D+06     0.0
    0.285000    5.0534503491802D+06     0.0
    0.285500    5.0326685150014D+06     0.0
    0.286000    5.0119952221448D+06     0.0
    0.286500    4.9914297140130D+06     0.0
    0.287000    4.9709712406266D+06     0.0
    0.287500    4.9506190585559D+06     0.0
    0.288000    4.9303724308513D+06     0.0
    0.288500    4.9102306269769D+06     0.0
    0.289000    4.8901929227432D+06     0.0
    0.289500    4.8702586002414D+06     0.0
    0.290000    4.8504269477785D+06     0.0
    0.290500    4.8306972598126D+06     0.0
    0.291000    4.8110688368899D+06     0.0
    0.291500    4.7915409855813D+06     0.0
    0.292000    4.7721130184213D+06     0.0
    0.292500    4.7527842538457D+06     0.0
    0.293000    4.7335540161318D+06     0.0
    0.293500    4.7144216353386D+06     0.0
    0.294000    4.6953864472471D+06     0.0
    0.294500    4.6764477933026D+06     0.0
    0.295000    4.6576050205568D+06     0.0
    0.295500    4.6388574816104D+06     0.0
    0.296000    4.6202045345569D+06     0.0
    0.296500    4.6016455429278D+06     0.0
    0.297000    4.5831798756363D+06     0.0
    0.297500    4.5648069069236D+06     0.0
    0.298000    4.5465260163051D+06     0.0
    0.298500    4.5283365885176D+06     0.0
    0.299000    4.5102380134659D+06     0.0
    0.299500    4.4922296861720D+06     0.0
    0.300000    4.4743110067232D+06     0.0
    0.300500    4.4564813802216D+06     0.0
    0.301000    4.4387402167342D+06     0.0
    0.301500    4.4210869312433D+06     0.0
    0.302000    4.4035209435972D+06     0.0
    0.302500    4.3860416784624D+06     0.0
    0.303000    4.3686485652758D+06     0.0
    0.303500    4.3513410381970D+06     0.0
    0.304000    4.3341185360618D+06     0.0
    0.304500    4.3169805023365D+06     0.0
    0.305000    4.2999263850714D+06     0.0
    0.305500    4.2829556368568D+06     0.0
    0.306000    4.2660677147769D+06     0.0
    0.306500    4.2492620803676D+06     0.0
    0.307000    4.2325381995713D+06     0.0
    0.307500    4.2158955426945D+06     0.0
    0.308000    4.1993335843655D+06     0.0
    0.308500    4.1828518034916D+06     0.0
    0.309000    4.1664496832180D+06     0.0
    0.309500    4.1501267108865D+06     0.0
    0.310000    4.1338823779948D+06     0.0
    0.310500    4.1177161801561D+06     0.0
    0.311000    4.1016276170596D+06     0.0
    0.311500    4.0856161924307D+06     0.0
    0.312000    4.0696814139931D+06     0.0
    0.312500    4.0538227934290D+06     0.0
    0.313000    4.0380398463421D+06     0.0
    0.313500    4.0223320922196D+06     0.0
    0.314000    4.0066990543952D+06     0.0
    0.314500    3.9911402600117D+06     0.0
    0.315000    3.9756552399859D+06     0.0
    0.315500    3.9602435289711D+06     0.0
    0.316000    3.9449046653230D+06     0.0
    0.316500    3.9296381910633D+06     0.0
    0.317000    3.9144436518459D+06     0.0
    0.317500    3.8993205969220D+06     0.0
    0.318000    3.8842685791059D+06     0.0
    0.318500    3.8692871547422D+06     0.0
    0.319000    3.8543758836714D+06     0.0
    0.319500    3.8395343291979D+06     0.0
    0.320000    3.8247620580569D+06     0.0
    0.320500    3.8100586403828D+06     0.0
    0.321000    3.7954236496765D+06     0.0
    0.321500    3.7808566627749D+06     0.0
    0.322000    3.7663572598188D+06     0.0
    0.322500    3.7519250242228D+06     0.0
    0.323000    3.7375595426446D+06     0.0
    0.323500    3.7232604049547D+06     0.0
    0.324000    3.7090272042068D+06     0.0
    0.324500    3.6948595366081D+06     0.0
    0.325000    3.6807570014901D+06     0.0
    0.325500    3.6667192012803D+06     0.0
    0.326000    3.6527457414726D+06     0.0
    0.326500    3.6388362306002D+06     0.0
    0.327000    3.6249902802066D+06     0.0
    0.327500    3.6112075048188D+06     0.0
    0.328000    3.5974875219194D+06     0.0
    0.328500    3.5838299519199D+06     0.0
    0.329000    3.5702344181336D+06     0.0
    0.329500    3.5567005467493D+06     0.0
    0.330000    3.5432279668049D+06     0.0
    0.330500    3.5298163101621D+06     0.0
    0.331000    3.5164652114797D+06     0.0
    0.331500    3.5031743081890D+06     0.0
    0.332000    3.4899432404687D+06     0.0
    0.332500    3.4767716512195D+06     0.0
    0.333000    3.4636591860398D+06     0.0
    0.333500    3.4506054932017D+06     0.0
    0.334000    3.4376102236261D+06     0.0
    0.334500    3.4246730308599D+06     0.0
    0.335000    3.4117935710516D+06     0.0
    0.335500    3.3989715029284D+06     0.0
    0.336000    3.3862064877728D+06     0.0
    0.336500    3.3734981894000D+06     0.0
    0.337000    3.3608462741354D+06     0.0
    0.337500    3.3482504107919D+06     0.0
    0.338000    3.3357102706478D+06     0.0
    0.338500    3.3232255274251D+06     0.0
    0.339000    3.3107958572677D+06     0.0
    0.339500    3.2984209387199D+06     0.0
    0.340000    3.2861004527053D+06     0.0