
variables = "r", "B(r) ", "Uncertainty"
zone T = "State 1 B(r)   N09p25q04RfReuxBxt6B"

    0.000000    5.9560130763344D+02     0.0
    0.025000    5.7825059123875D+04     0.0
    0.050000    5.7824266257270D+04     0.0
    0.075000    5.7820830626093D+04     0.0
    0.100000    5.7811581852213D+04     0.0
    0.125000    5.7792084941720D+04     0.0
    0.150000    5.7756647855618D+04     0.0
    0.175000    5.7698336990699D+04     0.0
    0.200000    5.7609004833001D+04     0.0
    0.225000    5.7479334905612D+04     0.0
    0.250000    5.7298909891523D+04     0.0
    0.275000    5.7056309410687D+04     0.0
    0.300000    5.6739244289864D+04     0.0
    0.325000    5.6334734187734D+04     0.0
    0.350000    5.5829335013631D+04     0.0
    0.375000    5.5209421583677D+04     0.0
    0.400000    5.4461529269220D+04     0.0
    0.425000    5.3572755898564D+04     0.0
    0.450000    5.2531221794192D+04     0.0
    0.475000    5.1326581538585D+04     0.0
    0.500000    4.9950575917628D+04     0.0
    0.525000    4.8397606654896D+04     0.0
    0.550000    4.6665310319752D+04     0.0
    0.575000    4.4755101614559D+04     0.0
    0.600000    4.2672650723036D+04     0.0
    0.625000    4.0428255270864D+04     0.0
    0.650000    3.8037065540775D+04     0.0
    0.675000    3.5519122742091D+04     0.0
    0.700000    3.2899175109565D+04     0.0
    0.725000    3.0206245919376D+04     0.0
    0.750000    2.7472941303725D+04     0.0
    0.775000    2.4734503642771D+04     0.0
    0.800000    2.2027637313349D+04     0.0
    0.825000    1.9389156019130D+04     0.0
    0.850000    1.6854522563866D+04     0.0
    0.875000    1.4456370095305D+04     0.0
    0.900000    1.2223105776096D+04     0.0
    0.925000    1.0177701064263D+04     0.0
    0.950000    8.3367655972320D+03     0.0
    0.975000    6.7099835310640D+03     0.0
    1.000000    5.2999630244233D+03  7.183D+02
    1.025000    4.1025138713550D+03  5.689D+02
    1.050000    3.1073289566127D+03  4.421D+02
    1.075000    2.2990070288700D+03  3.366D+02
    1.100000    1.6583222771142D+03  2.507D+02
    1.125000    1.1636247678928D+03  1.824D+02
    1.150000    7.9224797604983D+02  1.293D+02
    1.175000    5.2180645532478D+02  8.916D+01
    1.200000    3.3128695095200D+02  5.965D+01
    1.225000    2.0186669298452D+02  3.859D+01
    1.250000    1.1742847017470D+02  2.407D+01
    1.275000    6.4777979379472D+01  1.440D+01
    1.300000    3.3599821763103D+01  8.216D+00
    1.325000    1.6210534140301D+01  4.442D+00
    1.350000    7.1781676313168D+00  2.253D+00
    1.375000    2.8781280106767D+00  1.059D+00
    1.400000    1.0460369591971D+00  4.521D-01
    1.425000    3.7327125682062D-01  1.706D-01
    1.450000    1.7311402881332D-01  5.426D-02
    1.475000    1.2841467390770D-01  1.331D-02
    1.500000    1.1780704962493D-01  2.312D-03
    1.525000    1.0826173108353D-01  8.498D-04
    1.550000    9.7279456553646D-02  5.248D-04
    1.575000    8.7673185466376D-02  4.064D-04
    1.600000    8.0394538537339D-02  3.450D-04
    1.625000    7.4869367962226D-02  2.811D-04
    1.650000    7.0639317094165D-02  2.697D-04
    1.675000    6.7876243151438D-02  3.172D-04
    1.700000    6.6879076166163D-02  3.762D-04
    1.725000    6.7581261768895D-02  4.402D-04
    1.750000    6.9631260047928D-02  5.146D-04
    1.775000    7.2768345752686D-02  5.993D-04
    1.800000    7.6983649211912D-02  6.897D-04
    1.825000    8.2354678956705D-02  7.807D-04
    1.850000    8.8818692835993D-02  8.662D-04
    1.875000    9.6141788035394D-02  9.387D-04
    1.900000    1.0411455193607D-01  9.945D-04
    1.925000    1.1283623350736D-01  1.043D-03
    1.950000    1.2292760637862D-01  1.113D-03
    1.975000    1.3558267179271D-01  1.258D-03
    2.000000    1.5245370419332D-01  1.538D-03
    2.025000    1.7542050583522D-01  1.989D-03
    2.050000    2.0631502600280D-01  2.608D-03
    2.075000    2.4666584038419D-01  3.364D-03
    2.100000    2.9750648389492D-01  4.212D-03
    2.125000    3.5926803083523D-01  5.102D-03
    2.150000    4.3175622899088D-01  5.984D-03
    2.175000    5.1419979440433D-01  6.810D-03
    2.200000    6.0534943369825D-01  7.541D-03
    2.225000    7.0360560573766D-01  8.148D-03
    2.250000    8.0715523789778D-01  8.613D-03
    2.275000    9.1410187547105D-01  8.925D-03
    2.300000    1.0225786948644D+00  9.086D-03
    2.325000    1.1308385086905D+00  9.104D-03
    2.350000    1.2373187944776D+00  8.992D-03
    2.375000    1.3406826706563D+00  8.766D-03
    2.400000    1.4398386274790D+00  8.446D-03
    2.425000    1.5339428304149D+00  8.052D-03
    2.450000    1.6223881417781D+00  7.601D-03
    2.475000    1.7047838542800D+00  7.112D-03
    2.500000    1.7809296790162D+00  6.601D-03
    2.525000    1.8507869265480D+00  6.081D-03
    2.550000    1.9144491715285D+00  5.563D-03
    2.575000    1.9721140715440D+00  5.058D-03
    2.600000    2.0240574627706D+00  4.572D-03
    2.625000    2.0706103993997D+00  4.110D-03
    2.650000    2.1121394452280D+00  3.677D-03
    2.675000    2.1490302590706D+00  3.273D-03
    2.700000    2.1816743292734D+00  2.902D-03
    2.725000    2.2104585930732D+00  2.562D-03
    2.750000    2.2357576095427D+00  2.253D-03
    2.775000    2.2579279274701D+00  1.975D-03
    2.800000    2.2773042903023D+00  1.726D-03
    2.825000    2.2941973398681D+00  1.504D-03
    2.850000    2.3088925116300D+00  1.308D-03
    2.875000    2.3216498511541D+00  1.135D-03
    2.900000    2.3327045202146D+00  9.844D-04
    2.925000    2.3422677989162D+00  8.542D-04
    2.950000    2.3505284254562D+00  7.428D-04
    2.975000    2.3576541468389D+00  6.488D-04
    3.000000    2.3637933815232D+00  5.707D-04
    3.025000    2.3690769184806D+00  5.073D-04
    3.050000    2.3736195967784D+00  4.572D-04
    3.075000    2.3775219257574D+00  4.189D-04
    3.100000    2.3808716188600D+00  3.910D-04
    3.125000    2.3837450239921D+00  3.716D-04
    3.150000    2.3862084413487D+00  3.591D-04
    3.175000    2.3883193251957D+00  3.519D-04
    3.200000    2.3901273705916D+00  3.485D-04
    3.225000    2.3916754888715D+00  3.478D-04
    3.250000    2.3930006777571D+00  3.488D-04
    3.275000    2.3941347933797D+00  3.509D-04
    3.300000    2.3951052318317D+00  3.536D-04
    3.325000    2.3959355285029D+00  3.566D-04
    3.350000    2.3966458830045D+00  3.596D-04
    3.375000    2.3972536176124D+00  3.626D-04
    3.400000    2.3977735762878D+00  3.654D-04
    3.425000    2.3982184712532D+00  3.680D-04
    3.450000    2.3985991832181D+00  3.704D-04
    3.475000    2.3989250209233D+00  3.725D-04
    3.500000    2.3992039452207D+00  3.744D-04
    3.525000    2.3994427620483D+00  3.761D-04
    3.550000    2.3996472885494D+00  3.776D-04
    3.575000    2.3998224957359D+00  3.789D-04
    3.600000    2.3999726310307D+00  3.800D-04
    3.625000    2.4001013232155D+00  3.810D-04
    3.650000    2.4002116724989D+00  3.819D-04
    3.675000    2.4003063274840D+00  3.827D-04
    3.700000    2.4003875510646D+00  3.833D-04
    3.725000    2.4004572767863D+00  3.839D-04
    3.750000    2.4005171569471D+00  3.844D-04
    3.775000    2.4005686037657D+00  3.848D-04
    3.800000    2.4006128244461D+00  3.852D-04
    3.825000    2.4006508512375D+00  3.855D-04
    3.850000    2.4006835669124D+00  3.858D-04
    3.875000    2.4007117266670D+00  3.860D-04
    3.900000    2.4007359767379D+00  3.863D-04
    3.925000    2.4007568702733D+00  3.864D-04
    3.950000    2.4007748809252D+00  3.866D-04
    3.975000    2.4007904144291D+00  3.867D-04
    4.000000    2.4008038183974D+00  3.868D-04
    4.025000    2.4008153908636D+00  3.870D-04
    4.050000    2.4008253873865D+00  3.870D-04
    4.075000    2.4008340271815D+00  3.871D-04
    4.100000    2.4008414984360D+00  3.872D-04
    4.125000    2.4008479626977D+00  3.872D-04
    4.150000    2.4008535587553D+00  3.873D-04
    4.175000    2.4008584058947D+00  3.873D-04
    4.200000    2.4008626066681D+00  3.874D-04
    4.225000    2.4008662492809D+00  3.874D-04
    4.250000    2.4008694096944D+00  3.874D-04
    4.275000    2.4008721532305D+00  3.875D-04
    4.300000    2.4008745362430D+00  3.875D-04
    4.325000    2.4008766072681D+00  3.875D-04
    4.350000    2.4008784081415D+00  3.875D-04
    4.375000    2.4008799750220D+00  3.875D-04
    4.400000    2.4008813390726D+00  3.875D-04
    4.425000    2.4008825272181D+00  3.876D-04
    4.450000    2.4008835627225D+00  3.876D-04
    4.475000    2.4008844657049D+00  3.876D-04
    4.500000    2.4008852535744D+00  3.876D-04
    4.525000    2.4008859413965D+00  3.876D-04
    4.550000    2.4008865422046D+00  3.876D-04
    4.575000    2.4008870672944D+00  3.876D-04
    4.600000    2.4008875264752D+00  3.876D-04
    4.625000    2.4008879282520D+00  3.876D-04
    4.650000    2.4008882799777D+00  3.876D-04
    4.675000    2.4008885880732D+00  3.876D-04
    4.700000    2.4008888580919D+00  3.876D-04
    4.725000    2.4008890949042D+00  3.876D-04
    4.750000    2.4008893026522D+00  3.876D-04
    4.775000    2.4008894850274D+00  3.876D-04
    4.800000    2.4008896452142D+00  3.876D-04
    4.825000    2.4008897859957D+00  3.876D-04
    4.850000    2.4008899097826D+00  3.876D-04
    4.875000    2.4008900186807D+00  3.876D-04
    4.900000    2.4008901145485D+00  3.876D-04
    4.925000    2.4008901989760D+00  3.876D-04
    4.950000    2.4008902733693D+00  3.876D-04
    4.975000    2.4008903389682D+00  3.876D-04
    5.000000    2.4008903968275D+00  3.876D-04
    5.025000    2.4008904478955D+00  3.876D-04
    5.050000    2.4008904929857D+00  3.876D-04
    5.075000    2.4008905328214D+00  3.876D-04
    5.100000    2.4008905680445D+00  3.876D-04
    5.125000    2.4008905991884D+00  3.876D-04
    5.150000    2.4008906267489D+00  3.876D-04
    5.175000    2.4008906511461D+00  3.876D-04
    5.200000    2.4008906727586D+00  3.876D-04
    5.225000    2.4008906919106D+00  3.876D-04
    5.250000    2.4008907088829D+00  3.876D-04
    5.275000    2.4008907239487D+00  3.876D-04
    5.300000    2.4008907373237D+00  3.876D-04
    5.325000    2.4008907491894D+00  3.876D-04
    5.350000    2.4008907597436D+00  3.876D-04
    5.375000    2.4008907691107D+00  3.876D-04
    5.400000    2.4008907774433D+00  3.876D-04
    5.425000    2.4008907848579D+00  3.876D-04
    5.450000    2.4008907914342D+00  3.876D-04
    5.475000    2.4008907973180D+00  3.876D-04
    5.500000    2.4008908025537D+00  3.876D-04
    5.525000    2.4008908072254D+00  3.876D-04
    5.550000    2.4008908113922D+00  3.876D-04
    5.575000    2.4008908151145D+00  3.876D-04
    5.600000    2.4008908184271D+00  3.876D-04
    5.625000    2.4008908213917D+00  3.876D-04
    5.650000    2.4008908240313D+00  3.876D-04
    5.675000    2.4008908263957D+00  3.876D-04
    5.700000    2.4008908285087D+00  3.876D-04
    5.725000    2.4008908304079D+00  3.876D-04
    5.750000    2.4008908320915D+00  3.876D-04
    5.775000    2.4008908336109D+00  3.876D-04
    5.800000    2.4008908349646D+00  3.876D-04
    5.825000    2.4008908361914D+00  3.876D-04
    5.850000    2.4008908372769D+00  3.876D-04
    5.875000    2.4008908382603D+00  3.876D-04
    5.900000    2.4008908391274D+00  3.876D-04
    5.925000    2.4008908399176D+00  3.876D-04
    5.950000    2.4008908406304D+00  3.876D-04
    5.975000    2.4008908412653D+00  3.876D-04
    6.000000    2.4008908418352D+00  3.876D-04
    6.025000    2.4008908423533D+00  3.876D-04
    6.050000    2.4008908428191D+00  3.876D-04
    6.075000    2.4008908432596D+00  3.876D-04
    6.100000    2.4008908436201D+00  3.876D-04
    6.125000    2.4008908439684D+00  3.876D-04
    6.150000    2.4008908442633D+00  3.876D-04
    6.175000    2.4008908445319D+00  3.876D-04
    6.200000    2.4008908447741D+00  3.876D-04
    6.225000    2.4008908450034D+00  3.876D-04
    6.250000    2.4008908451786D+00  3.876D-04
    6.275000    2.4008908453544D+00  3.876D-04
    6.300000    2.4008908455307D+00  3.876D-04
    6.325000    2.4008908456662D+00  3.876D-04
    6.350000    2.4008908458021D+00  3.876D-04
    6.375000    2.4008908459247D+00  3.876D-04
    6.400000    2.4008908460337D+00  3.876D-04
    6.425000    2.4008908461431D+00  3.876D-04
    6.450000    2.4008908462250D+00  3.876D-04
    6.475000    2.4008908463072D+00  3.876D-04
    6.500000    2.4008908463896D+00  3.876D-04
    6.525000    2.4008908464582D+00  3.876D-04
    6.550000    2.4008908465132D+00  3.876D-04
    6.575000    2.4008908465683D+00  3.876D-04
    6.600000    2.4008908466514D+00  3.876D-04
    6.625000    2.4008908466928D+00  3.876D-04
    6.650000    2.4008908467203D+00  3.876D-04
    6.675000    2.4008908467619D+00  3.876D-04
    6.700000    2.4008908467895D+00  3.876D-04
    6.725000    2.4008908468173D+00  3.876D-04
    6.750000    2.4008908468450D+00  3.876D-04
    6.775000    2.4008908468448D+00  3.876D-04
    6.800000    2.4008908468726D+00  3.876D-04
    6.825000    2.4008908468865D+00  3.876D-04
    6.850000    2.4008908469145D+00  3.876D-04
    6.875000    2.4008908469284D+00  3.876D-04
    6.900000    2.4008908469423D+00  3.876D-04
    6.925000    2.4008908469563D+00  3.876D-04
    6.950000    2.4008908469703D+00  3.876D-04
    6.975000    2.4008908470126D+00  3.876D-04
    7.000000    2.4008908470267D+00  3.876D-04
    7.025000    2.4008908470408D+00  3.876D-04
    7.050000    2.4008908470408D+00  3.876D-04
    7.075000    2.4008908470549D+00  3.876D-04
    7.100000    2.4008908470548D+00  3.876D-04
    7.125000    2.4008908470548D+00  3.876D-04
    7.150000    2.4008908470690D+00  3.876D-04
    7.175000    2.4008908470689D+00  3.876D-04
    7.200000    2.4008908470831D+00  3.876D-04
    7.225000    2.4008908470831D+00  3.876D-04
    7.250000    2.4008908470831D+00  3.876D-04
    7.275000    2.4008908470831D+00  3.876D-04
    7.300000    2.4008908470973D+00  3.876D-04
    7.325000    2.4008908470973D+00  3.876D-04
    7.350000    2.4008908470973D+00  3.876D-04
    7.375000    2.4008908470686D+00  3.876D-04
    7.400000    2.4008908470686D+00  3.876D-04
    7.425000    2.4008908470829D+00  3.876D-04
    7.450000    2.4008908470829D+00  3.876D-04
    7.475000    2.4008908470828D+00  3.876D-04
    7.500000    2.4008908470828D+00  3.876D-04
    7.525000    2.4008908470972D+00  3.876D-04
    7.550000    2.4008908470971D+00  3.876D-04
    7.575000    2.4008908471259D+00  3.876D-04
    7.600000    2.4008908471259D+00  3.876D-04
    7.625000    2.4008908471259D+00  3.876D-04
    7.650000    2.4008908471259D+00  3.876D-04
    7.675000    2.4008908471259D+00  3.876D-04
    7.700000    2.4008908471259D+00  3.876D-04
    7.725000    2.4008908471259D+00  3.876D-04
    7.750000    2.4008908471259D+00  3.876D-04
    7.775000    2.4008908471259D+00  3.876D-04
    7.800000    2.4008908471259D+00  3.876D-04
    7.825000    2.4008908471259D+00  3.876D-04
    7.850000    2.4008908471259D+00  3.876D-04
    7.875000    2.4008908471259D+00  3.876D-04
    7.900000    2.4008908471259D+00  3.876D-04
    7.925000    2.4008908471259D+00  3.876D-04
    7.950000    2.4008908471259D+00  3.876D-04
    7.975000    2.4008908471259D+00  3.876D-04
    8.000000    2.4008908471259D+00  3.876D-04
    8.025000    2.4008908471259D+00  3.876D-04
    8.050000    2.4008908471259D+00  3.876D-04
    8.075000    2.4008908471259D+00  3.876D-04
    8.100000    2.4008908471259D+00  3.876D-04
    8.125000    2.4008908471259D+00  3.876D-04
    8.150000    2.4008908471259D+00  3.876D-04
    8.175000    2.4008908471259D+00  3.876D-04
    8.200000    2.4008908471259D+00  3.876D-04
    8.225000    2.4008908471259D+00  3.876D-04
    8.250000    2.4008908471259D+00  3.876D-04
    8.275000    2.4008908471259D+00  3.876D-04
    8.300000    2.4008908471259D+00  3.876D-04
    8.325000    2.4008908471259D+00  3.876D-04
    8.350000    2.4008908471259D+00  3.876D-04
    8.375000    2.4008908471259D+00  3.876D-04
    8.400000    2.4008908471259D+00  3.876D-04
    8.425000    2.4008908471259D+00  3.876D-04
    8.450000    2.4008908471259D+00  3.876D-04
    8.475000    2.4008908471259D+00  3.876D-04
    8.500000    2.4008908471259D+00  3.876D-04
    8.525000    2.4008908471259D+00  3.876D-04
    8.550000    2.4008908471259D+00  3.876D-04
    8.575000    2.4008908471259D+00  3.876D-04
    8.600000    2.4008908471259D+00  3.876D-04
    8.625000    2.4008908471259D+00  3.876D-04
    8.650000    2.4008908471259D+00  3.876D-04
    8.675000    2.4008908471259D+00  3.876D-04
    8.700000    2.4008908471259D+00  3.876D-04
    8.725000    2.4008908471259D+00  3.876D-04
    8.750000    2.4008908471259D+00  3.876D-04
    8.775000    2.4008908471259D+00  3.876D-04
    8.800000    2.4008908471259D+00  3.876D-04
    8.825000    2.4008908471259D+00  3.876D-04
    8.850000    2.4008908471259D+00  3.876D-04
    8.875000    2.4008908471259D+00  3.876D-04
    8.900000    2.4008908471259D+00  3.876D-04
    8.925000    2.4008908471259D+00  3.876D-04
    8.950000    2.4008908471259D+00  3.876D-04
    8.975000    2.4008908471259D+00  3.876D-04
    9.000000    2.4008908471259D+00  3.876D-04
    9.025000    2.4008908471259D+00  3.876D-04
    9.050000    2.4008908471259D+00  3.876D-04
    9.075000    2.4008908471259D+00  3.876D-04
    9.100000    2.4008908471259D+00  3.876D-04
    9.125000    2.4008908471259D+00  3.876D-04
    9.150000    2.4008908471259D+00  3.876D-04
    9.175000    2.4008908471259D+00  3.876D-04
    9.200000    2.4008908471259D+00  3.876D-04
    9.225000    2.4008908471259D+00  3.876D-04
    9.250000    2.4008908471259D+00  3.876D-04
    9.275000    2.4008908471259D+00  3.876D-04
    9.300000    2.4008908471259D+00  3.876D-04
    9.325000    2.4008908471259D+00  3.876D-04
    9.350000    2.4008908471259D+00  3.876D-04
    9.375000    2.4008908471259D+00  3.876D-04
    9.400000    2.4008908471259D+00  3.876D-04
    9.425000    2.4008908471259D+00  3.876D-04
    9.450000    2.4008908471259D+00  3.876D-04
    9.475000    2.4008908471259D+00  3.876D-04
    9.500000    2.4008908471259D+00  3.876D-04
    9.525000    2.4008908471259D+00  3.876D-04
    9.550000    2.4008908471259D+00  3.876D-04
    9.575000    2.4008908471259D+00  3.876D-04
    9.600000    2.4008908471259D+00  3.876D-04
    9.625000    2.4008908471259D+00  3.876D-04
    9.650000    2.4008908471259D+00  3.876D-04
    9.675000    2.4008908471259D+00  3.876D-04
    9.700000    2.4008908471259D+00  3.876D-04
    9.725000    2.4008908471259D+00  3.876D-04
    9.750000    2.4008908471259D+00  3.876D-04
    9.775000    2.4008908471259D+00  3.876D-04
    9.800000    2.4008908471259D+00  3.876D-04
    9.825000    2.4008908471259D+00  3.876D-04
    9.850000    2.4008908471259D+00  3.876D-04
    9.875000    2.4008908471259D+00  3.876D-04
    9.900000    2.4008908471259D+00  3.876D-04
    9.925000    2.4008908471259D+00  3.876D-04
    9.950000    2.4008908471259D+00  3.876D-04
    9.975000    2.4008908471259D+00  3.876D-04
   10.000000    2.4008908471259D+00  3.876D-04
   10.250000    2.4008908471259D+00     0.0
   10.500000    2.4008908471259D+00     0.0
   10.750000    2.4008908471259D+00     0.0
   11.000000    2.4008908471259D+00     0.0
   11.250000    2.4008908471259D+00     0.0
   11.500000    2.4008908471259D+00     0.0
   11.750000    2.4008908471259D+00     0.0
   12.000000    2.4008908471259D+00     0.0
   12.250000    2.4008908471259D+00     0.0
   12.500000    2.4008908471259D+00     0.0
   12.750000    2.4008908471259D+00     0.0
   13.000000    2.4008908471259D+00     0.0
   13.250000    2.4008908471259D+00     0.0
   13.500000    2.4008908471259D+00     0.0
   13.750000    2.4008908471259D+00     0.0
   14.000000    2.4008908471259D+00     0.0
   14.250000    2.4008908471259D+00     0.0
   14.500000    2.4008908471259D+00     0.0
   14.750000    2.4008908471259D+00     0.0
   15.000000    2.4008908471259D+00     0.0
   15.250000    2.4008908471259D+00     0.0
   15.500000    2.4008908471259D+00     0.0
   15.750000    2.4008908471259D+00     0.0
   16.000000    2.4008908471259D+00     0.0
   16.250000    2.4008908471259D+00     0.0
   16.500000    2.4008908471259D+00     0.0
   16.750000    2.4008908471259D+00     0.0
   17.000000    2.4008908471259D+00     0.0
   17.250000    2.4008908471259D+00     0.0
   17.500000    2.4008908471259D+00     0.0
   17.750000    2.4008908471259D+00     0.0
   18.000000    2.4008908471259D+00     0.0
   18.250000    2.4008908471259D+00     0.0
   18.500000    2.4008908471259D+00     0.0
   18.750000    2.4008908471259D+00     0.0
   19.000000    2.4008908471259D+00     0.0
   19.250000    2.4008908471259D+00     0.0
   19.500000    2.4008908471259D+00     0.0
   19.750000    2.4008908471259D+00     0.0
   20.000000    2.4008908471259D+00     0.0
   20.250000    2.4008908471259D+00     0.0
   20.500000    2.4008908471259D+00     0.0
   20.750000    2.4008908471259D+00     0.0
   21.000000    2.4008908471259D+00     0.0
   21.250000    2.4008908471259D+00     0.0
   21.500000    2.4008908471259D+00     0.0
   21.750000    2.4008908471259D+00     0.0
   22.000000    2.4008908471259D+00     0.0
   22.250000    2.4008908471259D+00     0.0
   22.500000    2.4008908471259D+00     0.0
   22.750000    2.4008908471259D+00     0.0
   23.000000    2.4008908471259D+00     0.0
   23.250000    2.4008908471259D+00     0.0
   23.500000    2.4008908471259D+00     0.0
   23.750000    2.4008908471259D+00     0.0
   24.000000    2.4008908471259D+00     0.0
   24.250000    2.4008908471259D+00     0.0
   24.500000    2.4008908471259D+00     0.0
   24.750000    2.4008908471259D+00     0.0
   25.000000    2.4008908471259D+00     0.0
   25.250000    2.4008908471259D+00     0.0
   25.500000    2.4008908471259D+00     0.0
   25.750000    2.4008908471259D+00     0.0
   26.000000    2.4008908471259D+00     0.0
   26.250000    2.4008908471259D+00     0.0
   26.500000    2.4008908471259D+00     0.0
   26.750000    2.4008908471259D+00     0.0
   27.000000    2.4008908471259D+00     0.0
   27.250000    2.4008908471259D+00     0.0
   27.500000    2.4008908471259D+00     0.0
   27.750000    2.4008908471259D+00     0.0
   28.000000    2.4008908471259D+00     0.0
   28.250000    2.4008908471259D+00     0.0
   28.500000    2.4008908471259D+00     0.0
   28.750000    2.4008908471259D+00     0.0
   29.000000    2.4008908471259D+00     0.0
   29.250000    2.4008908471259D+00     0.0
   29.500000    2.4008908471259D+00     0.0
   29.750000    2.4008908471259D+00     0.0
   30.000000    2.4008908471259D+00     0.0
   30.250000    2.4008908471259D+00     0.0
   30.500000    2.4008908471259D+00     0.0
   30.750000    2.4008908471259D+00     0.0
   31.000000    2.4008908471259D+00     0.0
   31.250000    2.4008908471259D+00     0.0
   31.500000    2.4008908471259D+00     0.0
   31.750000    2.4008908471259D+00     0.0
   32.000000    2.4008908471259D+00     0.0
   32.250000    2.4008908471259D+00     0.0
   32.500000    2.4008908471259D+00     0.0
   32.750000    2.4008908471259D+00     0.0
   33.000000    2.4008908471259D+00     0.0
   33.250000    2.4008908471259D+00     0.0
   33.500000    2.4008908471259D+00     0.0
   33.750000    2.4008908471259D+00     0.0
   34.000000    2.4008908471259D+00     0.0
   34.250000    2.4008908471259D+00     0.0
   34.500000    2.4008908471259D+00     0.0
   34.750000    2.4008908471259D+00     0.0
   35.000000    2.4008908471259D+00     0.0
   35.250000    2.4008908471259D+00     0.0
   35.500000    2.4008908471259D+00     0.0
   35.750000    2.4008908471259D+00     0.0
   36.000000    2.4008908471259D+00     0.0
   36.250000    2.4008908471259D+00     0.0
   36.500000    2.4008908471259D+00     0.0
   36.750000    2.4008908471259D+00     0.0
   37.000000    2.4008908471259D+00     0.0
   37.250000    2.4008908471259D+00     0.0
   37.500000    2.4008908471259D+00     0.0
   37.750000    2.4008908471259D+00     0.0
   38.000000    2.4008908471259D+00     0.0
   38.250000    2.4008908471259D+00     0.0
   38.500000    2.4008908471259D+00     0.0
   38.750000    2.4008908471259D+00     0.0
   39.000000    2.4008908471259D+00     0.0
   39.250000    2.4008908471259D+00     0.0
   39.500000    2.4008908471259D+00     0.0
   39.750000    2.4008908471259D+00     0.0
   40.000000    2.4008908471259D+00     0.0
   40.250000    2.4008908471259D+00     0.0
   40.500000    2.4008908471259D+00     0.0
   40.750000    2.4008908471259D+00     0.0
   41.000000    2.4008908471259D+00     0.0
   41.250000    2.4008908471259D+00     0.0
   41.500000    2.4008908471259D+00     0.0
   41.750000    2.4008908471259D+00     0.0
   42.000000    2.4008908471259D+00     0.0
   42.250000    2.4008908471259D+00     0.0
   42.500000    2.4008908471259D+00     0.0
   42.750000    2.4008908471259D+00     0.0
   43.000000    2.4008908471259D+00     0.0
   43.250000    2.4008908471259D+00     0.0
   43.500000    2.4008908471259D+00     0.0
   43.750000    2.4008908471259D+00     0.0
   44.000000    2.4008908471259D+00     0.0
   44.250000    2.4008908471259D+00     0.0
   44.500000    2.4008908471259D+00     0.0
   44.750000    2.4008908471259D+00     0.0
   45.000000    2.4008908471259D+00     0.0
   45.250000    2.4008908471259D+00     0.0
   45.500000    2.4008908471259D+00     0.0
   45.750000    2.4008908471259D+00     0.0
   46.000000    2.4008908471259D+00     0.0
   46.250000    2.4008908471259D+00     0.0
   46.500000    2.4008908471259D+00     0.0
   46.750000    2.4008908471259D+00     0.0
   47.000000    2.4008908471259D+00     0.0
   47.250000    2.4008908471259D+00     0.0
   47.500000    2.4008908471259D+00     0.0
   47.750000    2.4008908471259D+00     0.0
   48.000000    2.4008908471259D+00     0.0
   48.250000    2.4008908471259D+00     0.0
   48.500000    2.4008908471259D+00     0.0
   48.750000    2.4008908471259D+00     0.0
   49.000000    2.4008908471259D+00     0.0
   49.250000    2.4008908471259D+00     0.0
   49.500000    2.4008908471259D+00     0.0
   49.750000    2.4008908471259D+00     0.0
   50.000000    2.4008908471259D+00     0.0
   50.250000    2.4008908471259D+00     0.0
   50.500000    2.4008908471259D+00     0.0
   50.750000    2.4008908471259D+00     0.0
   51.000000    2.4008908471259D+00     0.0
   51.250000    2.4008908471259D+00     0.0
   51.500000    2.4008908471259D+00     0.0
   51.750000    2.4008908471259D+00     0.0
   52.000000    2.4008908471259D+00     0.0
   52.250000    2.4008908471259D+00     0.0
   52.500000    2.4008908471259D+00     0.0
   52.750000    2.4008908471259D+00     0.0
   53.000000    2.4008908471259D+00     0.0
   53.250000    2.4008908471259D+00     0.0
   53.500000    2.4008908471259D+00     0.0
   53.750000    2.4008908471259D+00     0.0
   54.000000    2.4008908471259D+00     0.0
   54.250000    2.4008908471259D+00     0.0
   54.500000    2.4008908471259D+00     0.0
   54.750000    2.4008908471259D+00     0.0
   55.000000    2.4008908471259D+00     0.0
   55.250000    2.4008908471259D+00     0.0
   55.500000    2.4008908471259D+00     0.0
   55.750000    2.4008908471259D+00     0.0
   56.000000    2.4008908471259D+00     0.0
   56.250000    2.4008908471259D+00     0.0
   56.500000    2.4008908471259D+00     0.0
   56.750000    2.4008908471259D+00     0.0
   57.000000    2.4008908471259D+00     0.0
   57.250000    2.4008908471259D+00     0.0
   57.500000    2.4008908471259D+00     0.0
   57.750000    2.4008908471259D+00     0.0
   58.000000    2.4008908471259D+00     0.0
   58.250000    2.4008908471259D+00     0.0
   58.500000    2.4008908471259D+00     0.0
   58.750000    2.4008908471259D+00     0.0
   59.000000    2.4008908471259D+00     0.0
   59.250000    2.4008908471259D+00     0.0
   59.500000    2.4008908471259D+00     0.0
   59.750000    2.4008908471259D+00     0.0
   60.000000    2.4008908471259D+00     0.0
   60.250000    2.4008908471259D+00     0.0
   60.500000    2.4008908471259D+00     0.0
   60.750000    2.4008908471259D+00     0.0
   61.000000    2.4008908471259D+00     0.0
   61.250000    2.4008908471259D+00     0.0
   61.500000    2.4008908471259D+00     0.0
   61.750000    2.4008908471259D+00     0.0
   62.000000    2.4008908471259D+00     0.0
   62.250000    2.4008908471259D+00     0.0
   62.500000    2.4008908471259D+00     0.0
   62.750000    2.4008908471259D+00     0.0
   63.000000    2.4008908471259D+00     0.0
   63.250000    2.4008908471259D+00     0.0
   63.500000    2.4008908471259D+00     0.0
   63.750000    2.4008908471259D+00     0.0
   64.000000    2.4008908471259D+00     0.0
   64.250000    2.4008908471259D+00     0.0
   64.500000    2.4008908471259D+00     0.0
   64.750000    2.4008908471259D+00     0.0
   65.000000    2.4008908471259D+00     0.0
   65.250000    2.4008908471259D+00     0.0
   65.500000    2.4008908471259D+00     0.0
   65.750000    2.4008908471259D+00     0.0
   66.000000    2.4008908471259D+00     0.0
   66.250000    2.4008908471259D+00     0.0
   66.500000    2.4008908471259D+00     0.0
   66.750000    2.4008908471259D+00     0.0
   67.000000    2.4008908471259D+00     0.0
   67.250000    2.4008908471259D+00     0.0
   67.500000    2.4008908471259D+00     0.0
   67.750000    2.4008908471259D+00     0.0
   68.000000    2.4008908471259D+00     0.0
   68.250000    2.4008908471259D+00     0.0
   68.500000    2.4008908471259D+00     0.0
   68.750000    2.4008908471259D+00     0.0
   69.000000    2.4008908471259D+00     0.0
   69.250000    2.4008908471259D+00     0.0
   69.500000    2.4008908471259D+00     0.0
   69.750000    2.4008908471259D+00     0.0
   70.000000    2.4008908471259D+00     0.0
   70.250000    2.4008908471259D+00     0.0
   70.500000    2.4008908471259D+00     0.0
   70.750000    2.4008908471259D+00     0.0
   71.000000    2.4008908471259D+00     0.0
   71.250000    2.4008908471259D+00     0.0
   71.500000    2.4008908471259D+00     0.0
   71.750000    2.4008908471259D+00     0.0
   72.000000    2.4008908471259D+00     0.0
   72.250000    2.4008908471259D+00     0.0
   72.500000    2.4008908471259D+00     0.0
   72.750000    2.4008908471259D+00     0.0
   73.000000    2.4008908471259D+00     0.0
   73.250000    2.4008908471259D+00     0.0
   73.500000    2.4008908471259D+00     0.0