
    1.0000       Infinity 5299.963024
    1.2500***************  117.428470
    1.5000   -22716.23636    0.117807
    1.7500   -29099.23974    0.069631
    2.0000   -23820.33094    0.152454
    2.2500   -10681.16369    0.807155
    2.5000    -2977.06934    1.780930
    2.7500    -1294.47795    2.235758
    3.0000     -767.22790    2.363793
    3.2500     -499.32487    2.393001
    3.5000     -332.46583    2.399204
    3.7500     -223.26915    2.400517
    4.0000     -151.13922    2.400804
    4.2500     -103.32804    2.400869
    4.5000      -71.47989    2.400885
    4.7500      -50.10643    2.400889
    5.0000      -35.62258    2.400890
    5.2500      -25.69445    2.400891
    5.5000      -18.80247    2.400891
    5.7500      -13.95388    2.400891
    6.0000      -10.49607    2.400891
    6.2500       -7.99647    2.400891
    6.5000       -6.16548    2.400891
    6.7500       -4.80709    2.400891
    7.0000       -3.78703    2.400891
    7.2500       -3.01224    2.400891
    7.5000       -2.41739    2.400891
    7.7500       -1.95609    2.400891
    8.0000       -1.59498    2.400891
    8.2500       -1.30982    2.400891
    8.5000       -1.08280    2.400891
    8.7500       -0.90068    2.400891
    9.0000       -0.75353    2.400891
    9.2500       -0.63385    2.400891
    9.5000       -0.53589    2.400891
    9.7500       -0.45525    2.400891
   10.0000       -0.38848    2.400891

variables = "r", "V(r) ", "Uncertainty"
zone T = "State 1 V(r)   N09p25q04RfReuxBxt6B"

    0.000000               Infinity     0.0
    0.025000               Infinity     0.0
    0.050000               Infinity     0.0
    0.075000               Infinity     0.0
    0.100000               Infinity     0.0
    0.125000               Infinity     0.0
    0.150000               Infinity     0.0
    0.175000               Infinity     0.0
    0.200000               Infinity     0.0
    0.225000               Infinity     0.0
    0.250000               Infinity     0.0
    0.275000               Infinity     0.0
    0.300000               Infinity     0.0
    0.325000               Infinity     0.0
    0.350000               Infinity     0.0
    0.375000               Infinity     0.0
    0.400000               Infinity     0.0
    0.425000               Infinity     0.0
    0.450000               Infinity     0.0
    0.475000               Infinity     0.0
    0.500000               Infinity     0.0
    0.525000               Infinity     0.0
    0.550000               Infinity     0.0
    0.575000               Infinity     0.0
    0.600000               Infinity     0.0
    0.625000               Infinity     0.0
    0.650000               Infinity     0.0
    0.675000               Infinity     0.0
    0.700000               Infinity     0.0
    0.725000               Infinity     0.0
    0.750000               Infinity     0.0
    0.775000               Infinity     0.0
    0.800000               Infinity     0.0
    0.825000               Infinity     0.0
    0.850000               Infinity     0.0
    0.875000               Infinity     0.0
    0.900000               Infinity     0.0
    0.925000               Infinity     0.0
    0.950000               Infinity     0.0
    0.975000               Infinity     0.0
    1.000000               Infinity       -NaN
    1.025000               Infinity       -NaN
    1.050000               Infinity       -NaN
    1.075000               Infinity       -NaN
    1.100000               Infinity       -NaN
    1.125000               Infinity       -NaN
    1.150000               Infinity       -NaN
    1.175000               Infinity       -NaN
    1.200000    5.2278459674222+292       -NaN
    1.225000    1.8834100061713+180       -NaN
    1.250000    8.0822537978414+106  3.886+108
    1.275000    1.4308967836085D+61  4.114D+62
    1.300000    1.1439758564087D+34  1.875D+35
    1.325000    8.7195791637872D+18  7.717D+19
    1.350000    1.2053964468619D+11  5.402D+11
    1.375000    1.9853148837655D+07  4.330D+07
    1.400000    2.7772097703663D+05  3.582D+05
    1.425000    6.5194606345241D+03  2.277D+04
    1.450000   -1.6098090405774D+04  3.452D+03
    1.475000   -2.0613959327326D+04  6.267D+02
    1.500000   -2.2716236362981D+04  8.878D+01
    1.525000   -2.4446331878888D+04  2.403D+01
    1.550000   -2.5908798270797D+04  1.325D+01
    1.575000   -2.7050481151580D+04  8.714D+00
    1.600000   -2.7905894646859D+04  5.181D+00
    1.625000   -2.8528068551867D+04  2.608D+00
    1.650000   -2.8950826810191D+04  1.097D+00
    1.675000   -2.9197802296984D+04  2.984D-01
    1.700000   -2.9291728915746D+04  8.166D-03
    1.725000   -2.9253047531486D+04  1.242D-01
    1.750000   -2.9099239737042D+04  5.556D-01
    1.775000   -2.8846669555303D+04  1.272D+00
    1.800000   -2.8510111386022D+04  2.279D+00
    1.825000   -2.8101385819846D+04  3.568D+00
    1.850000   -2.7630404291065D+04  5.058D+00
    1.875000   -2.7107068535396D+04  6.590D+00
    1.900000   -2.6540678763644D+04  8.048D+00
    1.925000   -2.5936438648178D+04  9.570D+00
    1.950000   -2.5291498785037D+04  1.168D+01
    1.975000   -2.4593160061596D+04  1.516D+01
    2.000000   -2.3820330943418D+04  2.069D+01
    2.025000   -2.2947845867914D+04  2.854D+01
    2.050000   -2.1952509426738D+04  3.845D+01
    2.075000   -2.0819496540438D+04  4.972D+01
    2.100000   -1.9547649692724D+04  6.130D+01
    2.125000   -1.8152267632455D+04  7.194D+01
    2.150000   -1.6664435205753D+04  8.045D+01
    2.175000   -1.5126898441236D+04  8.596D+01
    2.200000   -1.3587608734973D+04  8.807D+01
    2.225000   -1.2092769953203D+04  8.689D+01
    2.250000   -1.0681163690095D+04  8.292D+01
    2.275000   -9.3808177796949D+03  7.688D+01
    2.300000   -8.2081666755806D+03  6.957D+01
    2.325000   -7.1691575591404D+03  6.170D+01
    2.350000   -6.2614670919171D+03  5.382D+01
    2.375000   -5.4770527854862D+03  4.633D+01
    2.400000   -4.8045021226474D+03  3.948D+01
    2.425000   -4.2309076491187D+03  3.337D+01
    2.450000   -3.7432008490691D+03  2.805D+01
    2.475000   -3.3289988462887D+03  2.347D+01
    2.500000   -2.9770693423982D+03  1.958D+01
    2.525000   -2.6775257197643D+03  1.630D+01
    2.550000   -2.4218483283626D+03  1.355D+01
    2.575000   -2.2028047611358D+03  1.126D+01
    2.600000   -2.0143195851314D+03  9.352D+00
    2.625000   -1.8513258993807D+03  7.766D+00
    2.650000   -1.7096178714014D+03  6.448D+00
    2.675000   -1.5857144520460D+03  5.355D+00
    2.700000   -1.4767387878475D+03  4.447D+00
    2.725000   -1.3803144753488D+03  3.693D+00
    2.750000   -1.2944779540892D+03  3.068D+00
    2.775000   -1.2176054440918D+03  2.548D+00
    2.800000   -1.1483525108186D+03  2.116D+00
    2.825000   -1.0856043330560D+03  1.757D+00
    2.850000   -1.0284349004962D+03  1.459D+00
    2.875000   -9.7607358518354D+02  1.211D+00
    2.900000   -9.2787776277080D+02  1.005D+00
    2.925000   -8.8331037865729D+02  8.340D-01
    2.950000   -8.4192154877320D+02  6.917D-01
    2.975000   -8.0333345117175D+02  5.736D-01
    3.000000   -7.6722790341835D+02  4.755D-01
    3.025000   -7.3333613485397D+02  3.940D-01
    3.050000   -7.0143035552275D+02  3.264D-01
    3.075000   -6.7131679855386D+02  2.704D-01
    3.100000   -6.4282997307468D+02  2.239D-01
    3.125000   -6.1582791353340D+02  1.853D-01
    3.150000   -5.9018825029060D+02  1.534D-01
    3.175000   -5.6580495815956D+02  1.269D-01
    3.200000   -5.4258566504845D+02  1.050D-01
    3.225000   -5.2044942378754D+02  8.687D-02
    3.250000   -4.9932486718223D+02  7.186D-02
    3.275000   -4.7914868014539D+02  5.944D-02
    3.300000   -4.5986433435498D+02  4.916D-02
    3.325000   -4.4142104007723D+02  4.067D-02
    3.350000   -4.2377287774952D+02  3.364D-02
    3.375000   -4.0687807814482D+02  2.783D-02
    3.400000   -3.9069842546662D+02  2.303D-02
    3.425000   -3.7519876194556D+02  1.905D-02
    3.450000   -3.6034657631789D+02  1.577D-02
    3.475000   -3.4611166154239D+02  1.305D-02
    3.500000   -3.3246582960580D+02  1.081D-02
    3.525000   -3.1938267347840D+02  8.952D-03
    3.550000   -3.0683736787986D+02  7.417D-03
    3.575000   -2.9480650209086D+02  6.146D-03
    3.600000   -2.8326793912098D+02  5.095D-03
    3.625000   -2.7220069666542D+02  4.226D-03
    3.650000   -2.6158484593974D+02  3.506D-03
    3.675000   -2.5140142534274D+02  2.910D-03
    3.700000   -2.4163236630179D+02  2.416D-03
    3.725000   -2.3226042919146D+02  2.007D-03
    3.750000   -2.2326914760263D+02  1.668D-03
    3.775000   -2.1464277949486D+02  1.387D-03
    3.800000   -2.0636626410144D+02  1.154D-03
    3.825000   -1.9842518357432D+02  9.600D-04
    3.850000   -1.9080572864951D+02  7.994D-04
    3.875000   -1.8349466761039D+02  6.661D-04
    3.900000   -1.7647931807377D+02  5.552D-04
    3.925000   -1.6974752114914D+02  4.631D-04
    3.950000   -1.6328761760517D+02  3.865D-04
    3.975000   -1.5708842576640D+02  3.227D-04
    4.000000   -1.5113922091037D+02  2.696D-04
    4.025000   -1.4542971592381D+02  2.254D-04
    4.050000   -1.3995004312093D+02  1.886D-04
    4.075000   -1.3469073704456D+02  1.578D-04
    4.100000   -1.2964271814365D+02  1.322D-04
    4.125000   -1.2479727726929D+02  1.108D-04
    4.150000   -1.2014606087159D+02  9.289D-05
    4.175000   -1.1568105686420D+02  7.794D-05
    4.200000   -1.1139458109504D+02  6.544D-05
    4.225000   -1.0727926437521D+02  5.498D-05
    4.250000   -1.0332804002467D+02  4.622D-05
    4.275000   -9.9534131930818D+01  3.889D-05
    4.300000   -9.5891043036542D+01  3.274D-05
    4.325000   -9.2392544299572D+01  2.757D-05
    4.350000   -8.9032664053594D+01  2.324D-05
    4.375000   -8.5805677763436D+01  1.960D-05
    4.400000   -8.2706098181163D+01  1.655D-05
    4.425000   -7.9728665851278D+01  1.398D-05
    4.450000   -7.6868339976255D+01  1.181D-05
    4.475000   -7.4120289619742D+01  9.989D-06
    4.500000   -7.1479885238082D+01  8.453D-06
    4.525000   -6.8942690528450D+01  7.158D-06
    4.550000   -6.6504454582334D+01  6.066D-06
    4.575000   -6.4161104332131D+01  5.144D-06
    4.600000   -6.1908737283473D+01  4.365D-06
    4.625000   -5.9743614525647D+01  3.706D-06
    4.650000   -5.7662154008416D+01  3.149D-06
    4.675000   -5.5660924071175D+01  2.677D-06
    4.700000   -5.3736637229426D+01  2.278D-06
    4.725000   -5.1886144194184D+01  1.939D-06
    4.750000   -5.0106428135767D+01  1.652D-06
    4.775000   -4.8394599154670D+01  1.408D-06
    4.800000   -4.6747888986899D+01  1.201D-06
    4.825000   -4.5163645909946D+01  1.026D-06
    4.850000   -4.3639329854702D+01  8.760D-07
    4.875000   -4.2172507710679D+01  7.488D-07
    4.900000   -4.0760848820026D+01  6.404D-07
    4.925000   -3.9402120656450D+01  5.481D-07
    4.950000   -3.8094184674646D+01  4.694D-07
    4.975000   -3.6834992331452D+01  4.023D-07
    5.000000   -3.5622581270745D+01  3.450D-07
    5.025000   -3.4455071661294D+01  2.960D-07
    5.050000   -3.3330662689341D+01  2.542D-07
    5.075000   -3.2247629193622D+01  2.184D-07
    5.100000   -3.1204318441294D+01  1.877D-07
    5.125000   -3.0199147039211D+01  1.615D-07
    5.150000   -2.9230597971215D+01  1.390D-07
    5.175000   -2.8297217763002D+01  1.198D-07
    5.200000   -2.7397613763972D+01  1.032D-07
    5.225000   -2.6530451545114D+01  8.902D-08
    5.250000   -2.5694452406198D+01  7.683D-08
    5.275000   -2.4888390988043D+01  6.634D-08
    5.300000   -2.4111092988482D+01  5.732D-08
    5.325000   -2.3361432973669D+01  4.956D-08
    5.350000   -2.2638332282312D+01  4.287D-08
    5.375000   -2.1940757022768D+01  3.711D-08
    5.400000   -2.1267716151644D+01  3.214D-08
    5.425000   -2.0618259638609D+01  2.786D-08
    5.450000   -1.9991476708669D+01  2.417D-08
    5.475000   -1.9386494158174D+01  2.097D-08
    5.500000   -1.8802474748804D+01  1.821D-08
    5.525000   -1.8238615664877D+01  1.582D-08
    5.550000   -1.7694147041375D+01  1.375D-08
    5.575000   -1.7168330554003D+01  1.195D-08
    5.600000   -1.6660458071278D+01  1.040D-08
    5.625000   -1.6169850363783D+01  9.057D-09
    5.650000   -1.5695855871415D+01  7.892D-09
    5.675000   -1.5237849522078D+01  6.880D-09
    5.700000   -1.4795231603605D+01  6.001D-09
    5.725000   -1.4367426683345D+01  5.235D-09
    5.750000   -1.3953882576125D+01  4.574D-09
    5.775000   -1.3554069355090D+01  3.995D-09
    5.800000   -1.3167478408391D+01  3.493D-09
    5.825000   -1.2793621534245D+01  3.053D-09
    5.850000   -1.2432030077885D+01  2.673D-09
    5.875000   -1.2082254103546D+01  2.339D-09
    5.900000   -1.1743861605203D+01  2.051D-09
    5.925000   -1.1416437749075D+01  1.798D-09
    5.950000   -1.1099584151521D+01  1.575D-09
    5.975000   -1.0792918186782D+01  1.383D-09
    6.000000   -1.0496072325204D+01  1.214D-09
    6.025000   -1.0208693500537D+01  1.065D-09
    6.050000   -9.9304425047390D+00  9.355D-10
    6.075000   -9.6609934085392D+00  8.172D-10
    6.100000   -9.4000330086256D+00  7.212D-10
    6.125000   -9.1472602958511D+00  6.322D-10
    6.150000   -8.9023859505975D+00  5.579D-10
    6.175000   -8.6651318562361D+00  4.922D-10
    6.200000   -8.4352306361346D+00  4.345D-10
    6.225000   -8.2124252094830D+00  3.819D-10
    6.250000   -7.9964683672346D+00  3.412D-10
    6.275000   -7.7871223645881D+00  3.023D-10
    6.300000   -7.5841585334696D+00  2.652D-10
    6.325000   -7.3873569103664D+00  2.364D-10
    6.350000   -7.1965058793974D+00  2.089D-10
    6.375000   -7.0114018326580D+00  1.847D-10
    6.400000   -6.8318488436275D+00  1.637D-10
    6.425000   -6.6576583550885D+00  1.436D-10
    6.450000   -6.4886488807672D+00  1.283D-10
    6.475000   -6.3246457187265D+00  1.137D-10
    6.500000   -6.1654806781720D+00  9.966D-11
    6.525000   -6.0109918172633D+00  8.812D-11
    6.550000   -5.8610231920121D+00  7.886D-11
    6.575000   -5.7154246160259D+00  7.000D-11
    6.600000   -5.5740514304428D+00  5.810D-11
    6.625000   -5.4367642842180D+00  5.174D-11
    6.650000   -5.3034289220064D+00  4.727D-11
    6.675000   -5.1739159826231D+00  4.139D-11
    6.700000   -5.0481008057305D+00  3.732D-11
    6.725000   -4.9258632458663D+00  3.342D-11
    6.750000   -4.8070874950677D+00  2.969D-11
    6.775000   -4.6916619127022D+00  2.900D-11
    6.800000   -4.5794788618267D+00  2.551D-11
    6.825000   -4.4704345537476D+00  2.354D-11
    6.850000   -4.3644288974363D+00  2.030D-11
    6.875000   -4.2613653565378D+00  1.852D-11
    6.900000   -4.1611508113168D+00  1.681D-11
    6.925000   -4.0636954269894D+00  1.517D-11
    6.950000   -3.9689125271894D+00  1.359D-11
    6.975000   -3.8767184725995D+00  9.665D-12
    7.000000   -3.7870325451203D+00  8.269D-12
    7.025000   -3.6997768357021D+00  6.931D-12
    7.050000   -3.6148761379049D+00  6.778D-12
    7.075000   -3.5322578450098D+00  5.524D-12
    7.100000   -3.4518518519895D+00  5.403D-12
    7.125000   -3.3735904607596D+00  5.285D-12
    7.150000   -3.2974082897743D+00  4.136D-12
    7.175000   -3.2232421872668D+00  4.047D-12
    7.200000   -3.1510311475298D+00  2.969D-12
    7.225000   -3.0807162312560D+00  2.905D-12
    7.250000   -3.0122404884006D+00  2.843D-12
    7.275000   -2.9455488846264D+00  2.782D-12
    7.300000   -2.8805882304249D+00  1.815D-12
    7.325000   -2.8173071133147D+00  1.777D-12
    7.350000   -2.7556558323258D+00  1.739D-12
    7.375000   -2.6955863355692D+00  3.405D-12
    7.400000   -2.6370521596875D+00  3.333D-12
    7.425000   -2.5800083724665D+00  2.448D-12
    7.450000   -2.5244115171260D+00  2.397D-12
    7.475000   -2.4702195588104D+00  2.347D-12
    7.500000   -2.4173918334657D+00  2.298D-12
    7.525000   -2.3658889984960D+00  1.500D-12
    7.550000   -2.3156729855479D+00  1.469D-12
    7.575000   -2.2667069547261D+00  0.000D+00
    7.600000   -2.2189552512441D+00  0.000D+00
    7.625000   -2.1723833629345D+00  0.000D+00
    7.650000   -2.1269578800751D+00  0.000D+00
    7.675000   -2.0826464564369D+00  0.000D+00
    7.700000   -2.0394177718892D+00  0.000D+00
    7.725000   -1.9972414964331D+00  0.000D+00
    7.750000   -1.9560882556063D+00  0.000D+00
    7.775000   -1.9159295972014D+00  0.000D+00
    7.800000   -1.8767379592464D+00  0.000D+00
    7.825000   -1.8384866391945D+00  0.000D+00
    7.850000   -1.8011497642751D+00  0.000D+00
    7.875000   -1.7647022629584D+00  0.000D+00
    7.900000   -1.7291198374896D+00  0.000D+00
    7.925000   -1.6943789374489D+00  0.000D+00
    7.950000   -1.6604567342965D+00  0.000D+00
    7.975000   -1.6273310968630D+00  0.000D+00
    8.000000   -1.5949805677479D+00  0.000D+00
    8.025000   -1.5633843405894D+00  0.000D+00
    8.050000   -1.5325222381713D+00  0.000D+00
    8.075000   -1.5023746913339D+00  0.000D+00
    8.100000   -1.4729227186569D+00  0.000D+00
    8.125000   -1.4441479068837D+00  0.000D+00
    8.150000   -1.4160323920586D+00  0.000D+00
    8.175000   -1.3885588413481D+00  0.000D+00
    8.200000   -1.3617104355204D+00  0.000D+00
    8.225000   -1.3354708520567D+00  0.000D+00
    8.250000   -1.3098242488701D+00  0.000D+00
    8.275000   -1.2847552486081D+00  0.000D+00
    8.300000   -1.2602489235173D+00  0.000D+00
    8.325000   -1.2362907808466D+00  0.000D+00
    8.350000   -1.2128667487700D+00  0.000D+00
    8.375000   -1.1899631628084D+00  0.000D+00
    8.400000   -1.1675667527304D+00  0.000D+00
    8.425000   -1.1456646299156D+00  0.000D+00
    8.450000   -1.1242442751612D+00  0.000D+00
    8.475000   -1.1032935269157D+00  0.000D+00
    8.500000   -1.0828005699240D+00  0.000D+00
    8.525000   -1.0627539242666D+00  0.000D+00
    8.550000   -1.0431424347808D+00  0.000D+00
    8.575000   -1.0239552608465D+00  0.000D+00
    8.600000   -1.0051818665260D+00  0.000D+00
    8.625000   -9.8681201104132D-01  0.000D+00
    8.650000   -9.6883573957952D-01  0.000D+00
    8.675000   -9.5124337441168D-01  0.000D+00
    8.700000   -9.3402550631490D-01  0.000D+00
    8.725000   -9.1717298628588D-01  0.000D+00
    8.750000   -9.0067691753535D-01  0.000D+00
    8.775000   -8.8452864775291D-01  0.000D+00
    8.800000   -8.6871976163258D-01  0.000D+00
    8.825000   -8.5324207364934D-01  0.000D+00
    8.850000   -8.3808762107758D-01  0.000D+00
    8.875000   -8.2324865724269D-01  0.000D+00
    8.900000   -8.0871764499722D-01  0.000D+00
    8.925000   -7.9448725041369D-01  0.000D+00
    8.950000   -7.8055033668603D-01  0.000D+00
    8.975000   -7.6689995823224D-01  0.000D+00
    9.000000   -7.5352935499108D-01  0.000D+00
    9.025000   -7.4043194690582D-01  0.000D+00
    9.050000   -7.2760132858833D-01  0.000D+00
    9.075000   -7.1503126415719D-01  0.000D+00
    9.100000   -7.0271568224360D-01  0.000D+00
    9.125000   -6.9064867115911D-01  0.000D+00
    9.150000   -6.7882447421961D-01  0.000D+00
    9.175000   -6.6723748521986D-01  0.000D+00
    9.200000   -6.5588224405351D-01  0.000D+00
    9.225000   -6.4475343247339D-01  0.000D+00
    9.250000   -6.3384586998716D-01  0.000D+00
    9.275000   -6.2315450988373D-01  0.000D+00
    9.300000   -6.1267443538585D-01  0.000D+00
    9.325000   -6.0240085592439D-01  0.000D+00
    9.350000   -5.9232910353037D-01  0.000D+00
    9.375000   -5.8245462934048D-01  0.000D+00
    9.400000   -5.7277300021225D-01  0.000D+00
    9.425000   -5.6327989544516D-01  0.000D+00
    9.450000   -5.5397110360408D-01  0.000D+00
    9.475000   -5.4484251944148D-01  0.000D+00
    9.500000   -5.3589014091514D-01  0.000D+00
    9.525000   -5.2711006629812D-01  0.000D+00
    9.550000   -5.1849849137787D-01  0.000D+00
    9.575000   -5.1005170674142D-01  0.000D+00
    9.600000   -5.0176609514386D-01  0.000D+00
    9.625000   -4.9363812895735D-01  0.000D+00
    9.650000   -4.8566436769775D-01  0.000D+00
    9.675000   -4.7784145562662D-01  0.000D+00
    9.700000   -4.7016611942581D-01  0.000D+00
    9.725000   -4.6263516594239D-01  0.000D+00
    9.750000   -4.5524548000152D-01  0.000D+00
    9.775000   -4.4799402228515D-01  0.000D+00
    9.800000   -4.4087782727421D-01  0.000D+00
    9.825000   -4.3389400125236D-01  0.000D+00
    9.850000   -4.2703972036920D-01  0.000D+00
    9.875000   -4.2031222876114D-01  0.000D+00
    9.900000   -4.1370883672782D-01  0.000D+00
    9.925000   -4.0722691896260D-01  0.000D+00
    9.950000   -4.0086391283502D-01  0.000D+00
    9.975000   -3.9461731672392D-01  0.000D+00
   10.000000   -3.8848468839928D-01  0.000D+00
   10.250000   -3.3292879537257D-01     0.0
   10.500000   -2.8646915903765D-01     0.0
   10.750000   -2.4743516144941D-01     0.0
   11.000000   -2.1449500984099D-01     0.0
   11.250000   -1.8658078412057D-01     0.0
   11.500000   -1.6283138818468D-01     0.0
   11.750000   -1.4254882546632D-01     0.0
   12.000000   -1.2516446463075D-01     0.0
   12.250000   -1.1021284888435D-01     0.0
   12.500000   -9.7311240079720D-02     0.0
   12.750000   -8.6143550648351D-02     0.0
   13.000000   -7.6447653414108D-02     0.0
   13.250000   -6.8005307063941D-02     0.0
   13.500000   -6.0634118403715D-02     0.0
   13.750000   -5.4181099137730D-02     0.0
   14.000000   -4.8517477343630D-02     0.0
   14.250000   -4.3534501088940D-02     0.0
   14.500000   -3.9140030271016D-02     0.0
   14.750000   -3.5255757503704D-02     0.0
   15.000000   -3.1814933197089D-02     0.0
   15.250000   -2.8760496443178D-02     0.0
   15.500000   -2.6043533829785D-02     0.0
   15.750000   -2.3622004273685D-02     0.0
   16.000000   -2.1459680454710D-02     0.0
   16.250000   -1.9525267245467D-02     0.0
   16.500000   -1.7791665273647D-02     0.0
   16.750000   -1.6235353887494D-02     0.0
   17.000000   -1.4835872673379D-02     0.0
   17.250000   -1.3575384569301D-02     0.0
   17.500000   -1.2438306739339D-02     0.0
   17.750000   -1.1410997884123D-02     0.0
   18.000000   -1.0481492688033D-02     0.0
   18.250000   -9.6392757439526D-03     0.0
   18.500000   -8.8750886286963D-03     0.0
   18.750000   -8.1807648878919D-03     0.0
   19.000000   -7.5490885764318D-03     0.0
   19.250000   -6.9736727280336D-03     0.0
   19.500000   -6.4488547254632D-03     0.0
   19.750000   -5.9696060359679D-03     0.0
   20.000000   -5.5314541840034D-03     0.0
   20.250000   -5.1304151710856D-03     0.0
   20.500000   -4.7629348332495D-03     0.0
   20.750000   -4.4258378603650D-03     0.0
   21.000000   -4.1162833967530D-03     0.0
   21.250000   -3.8317263059158D-03     0.0
   21.500000   -3.5698833192371D-03     0.0
   21.750000   -3.3287034037264D-03     0.0
   22.000000   -3.1063417809592D-03     0.0
   22.250000   -2.9011371113316D-03     0.0
   22.500000   -2.7115914271039D-03     0.0
   22.750000   -2.5363524564981D-03     0.0
   23.000000   -2.3741980310644D-03     0.0
   23.250000   -2.2240223110386D-03     0.0
   23.500000   -2.0848235996573D-03     0.0
   23.750000   -1.9556935483621D-03     0.0
   24.000000   -1.8358075813206D-03     0.0
   24.250000   -1.7244163904083D-03     0.0
   24.500000   -1.6208383713009D-03     0.0
   24.750000   -1.5244528881050D-03     0.0
   25.000000   -1.4346942684124D-03     0.0
   25.250000   -1.3510464431370D-03     0.0
   25.500000   -1.2730381562738D-03     0.0
   25.750000   -1.2002386790551D-03     0.0
   26.000000   -1.1322539710679D-03     0.0
   26.250000   -1.0687232379194D-03     0.0
   26.500000   -1.0093158411476D-03     0.0
   26.750000   -9.5372852138867D-04     0.0
   27.000000   -9.0168290044863D-04     0.0
   27.250000   -8.5292323197482D-04     0.0
   27.500000   -8.0721437395946D-04     0.0
   27.750000   -7.6433995940484D-04     0.0
   28.000000   -7.2410074419343D-04     0.0
   28.250000   -6.8631311358784D-04     0.0
   28.500000   -6.5080773087816D-04     0.0
   28.750000   -6.1742831353450D-04     0.0
   29.000000   -5.8603052384401D-04     0.0
   29.250000   -5.5648096244055D-04     0.0
   29.500000   -5.2865625439696D-04     0.0
   29.750000   -5.0244221866477D-04     0.0
   30.000000   -4.7773311263241D-04     0.0
   30.250000   -4.5443094444653D-04     0.0
   30.500000   -4.3244484651537D-04     0.0
   30.750000   -4.1169050430032D-04     0.0
   31.000000   -3.9208963511246D-04     0.0
   31.250000   -3.7356951217357D-04     0.0
   31.500000   -3.5606252968466D-04     0.0
   31.750000   -3.3950580507534D-04     0.0
   32.000000   -3.2384081499171D-04     0.0
   32.250000   -3.0901306192300D-04     0.0
   32.500000   -2.9497176867368D-04     0.0
   32.750000   -2.8166959816161D-04     0.0
   33.000000   -2.6906239626811D-04     0.0
   33.250000   -2.5710895568540D-04     0.0
   33.500000   -2.4577079890398D-04     0.0
   33.750000   -2.3501197865920D-04     0.0
   34.000000   -2.2479889431517D-04     0.0
   34.250000   -2.1510012280679D-04     0.0
   34.500000   -2.0588626288925D-04     0.0
   34.750000   -1.9712979155978D-04     0.0
   35.000000   -1.8880493162093D-04     0.0
   35.250000   -1.8088752944819D-04     0.0
   35.500000   -1.7335494211004D-04     0.0
   35.750000   -1.6618593306475D-04     0.0
   36.000000   -1.5936057572765D-04     0.0
   36.250000   -1.5286016426508D-04     0.0
   36.500000   -1.4666713102806D-04     0.0
   36.750000   -1.4076497008998D-04     0.0
   37.000000   -1.3513816639902D-04     0.0
   37.250000   -1.2977213009838D-04     0.0
   37.500000   -1.2465313560575D-04     0.0
   37.750000   -1.1976826507798D-04     0.0
   38.000000   -1.1510535591877D-04     0.0
   38.250000   -1.1065295201598D-04     0.0
   38.500000   -1.0640025842106D-04     0.0
   38.750000   -1.0233709920728D-04     0.0
   39.000000   -9.8453878264910D-05     0.0
   39.250000   -9.4741542811411D-05     0.0
   39.500000   -9.1191549412754D-05     0.0
   39.750000   -8.7795832328415D-05     0.0
   40.000000   -8.4546774007756D-05     0.0
   40.250000   -8.1437177579177D-05     0.0
   40.500000   -7.8460241186073D-05     0.0
   40.750000   -7.5609534035118D-05     0.0
   41.000000   -7.2878974032955D-05     0.0
   41.250000   -7.0262806897039D-05     0.0
   41.500000   -6.7755586635215D-05     0.0
   41.750000   -6.5352157296745D-05     0.0
   42.000000   -6.3047635904948D-05     0.0
   42.250000   -6.0837396488459D-05     0.0
   42.500000   -5.8717055134370D-05     0.0
   42.750000   -5.6682455992325D-05     0.0
   43.000000   -5.4729658163917D-05     0.0
   43.250000   -5.2854923416636D-05     0.0
   43.500000   -5.1054704666094D-05     0.0
   43.750000   -4.9325635174408D-05     0.0
   44.000000   -4.7664518416419D-05     0.0
   44.250000   -4.6068318568941D-05     0.0
   44.500000   -4.4534151581479D-05     0.0
   44.750000   -4.3059276789833D-05     0.0
   45.000000   -4.1641089036777D-05     0.0
   45.250000   -4.0277111266533D-05     0.0
   45.500000   -3.8964987562123D-05     0.0
   45.750000   -3.7702476596863D-05     0.0
   46.000000   -3.6487445473244D-05     0.0
   46.250000   -3.5317863924356D-05     0.0
   46.500000   -3.4191798854672D-05     0.0
   46.750000   -3.3107409198656D-05     0.0
   47.000000   -3.2062941077101D-05     0.0
   47.250000   -3.1056723232484D-05     0.0
   47.500000   -3.0087162725897D-05     0.0
   47.750000   -2.9152740879273D-05     0.0
   48.000000   -2.8252009447737D-05     0.0
   48.250000   -2.7383587007913D-05     0.0
   48.500000   -2.6546155548949D-05     0.0
   48.750000   -2.5738457253930D-05     0.0
   49.000000   -2.4959291460112D-05     0.0
   49.250000   -2.4207511787205D-05     0.0
   49.500000   -2.3482023423615D-05     0.0
   49.750000   -2.2781780561210D-05     0.0
   50.000000   -2.2105783969787D-05     0.0
   50.250000   -2.1453078702977D-05     0.0
   50.500000   -2.0822751927860D-05     0.0
   50.750000   -2.0213930871034D-05     0.0
   51.000000   -1.9625780874374D-05     0.0
   51.250000   -1.9057503554091D-05     0.0
   51.500000   -1.8508335057165D-05     0.0
   51.750000   -1.7977544409532D-05     0.0
   52.000000   -1.7464431950789D-05     0.0
   52.250000   -1.6968327850511D-05     0.0
   52.500000   -1.6488590701531D-05     0.0
   52.750000   -1.6024606185876D-05     0.0
   53.000000   -1.5575785809263D-05     0.0
   53.250000   -1.5141565700338D-05     0.0
   53.500000   -1.4721405471057D-05     0.0
   53.750000   -1.4314787134836D-05     0.0
   54.000000   -1.3921214079274D-05     0.0
   54.250000   -1.3540210090472D-05     0.0
   54.500000   -1.3171318426133D-05     0.0
   54.750000   -1.2814100934780D-05     0.0
   55.000000   -1.2468137218623D-05     0.0
   55.250000   -1.2133023837701D-05     0.0
   55.500000   -1.1808373553103D-05     0.0
   55.750000   -1.1493814607186D-05     0.0
   56.000000   -1.1188990038811D-05     0.0
   56.250000   -1.0893557031760D-05     0.0
   56.500000   -1.0607186294582D-05     0.0
   56.750000   -1.0329561470218D-05     0.0
   57.000000   -1.0060378573862D-05     0.0
   57.250000   -9.7993454575753D-06     0.0
   57.500000   -9.5461813002867D-06     0.0
   57.750000   -9.3006161218607D-06     0.0
   58.000000   -9.0623903200030D-06     0.0
   58.250000   -8.8312542288376D-06     0.0
   58.500000   -8.6069676980527D-06     0.0
   58.750000   -8.3892996915747D-06     0.0
   59.000000   -8.1780279047859D-06     0.0
   59.250000   -7.9729383993539D-06     0.0
   59.500000   -7.7738252547941D-06     0.0
   59.750000   -7.5804902359299D-06     0.0
   60.000000   -7.3927424754648D-06     0.0
   60.250000   -7.2103981709185D-06     0.0
   60.500000   -7.0332802952214D-06     0.0
   60.750000   -6.8612183202986D-06     0.0
   61.000000   -6.6940479530100D-06     0.0
   61.250000   -6.5316108828458D-06     0.0
   61.500000   -6.3737545408096D-06     0.0
   61.750000   -6.2203318689488D-06     0.0
   62.000000   -6.0712011000228D-06     0.0
   62.250000   -5.9262255468230D-06     0.0
   62.500000   -5.7852734006864D-06     0.0
   62.750000   -5.6482175387659D-06     0.0
   63.000000   -5.5149353396437D-06     0.0
   63.250000   -5.3853085068965D-06     0.0
   63.500000   -5.2592229002378D-06     0.0
   63.750000   -5.1365683738860D-06     0.0
   64.000000   -5.0172386218198D-06     0.0
   64.250000   -4.9011310296040D-06     0.0
   64.500000   -4.7881465324814D-06     0.0
   64.750000   -4.6781894794432D-06     0.0
   65.000000   -4.5711675030033D-06     0.0
   65.250000   -4.4669913944183D-06     0.0
   65.500000   -4.3655749841033D-06     0.0