
variables = "r", "tA(r)", "Uncertainty"
zone T = "State 1 qA(r)  N09p25q04RfReuxBxt6B"

    1.000000    3.2893533156347D+01  1.425D+01
    1.025000    2.7009984298923D+01  1.166D+01
    1.050000    2.1937459706189D+01  9.436D+00
    1.075000    1.7613883873504D+01  7.548D+00
    1.100000    1.3972045882069D+01  5.962D+00
    1.125000    1.0941955364883D+01  4.648D+00
    1.150000    8.4530051943015D+00  3.574D+00
    1.175000    6.4358756352024D+00  2.706D+00
    1.200000    4.8241349214704D+00  2.017D+00
    1.225000    3.5555115522040D+00  1.477D+00
    1.250000    2.5728327507382D+00  1.061D+00
    1.275000    1.8246404184172D+00  7.467D-01
    1.300000    1.2655097841897D+00  5.133D-01
    1.325000    8.5610636127259D-01  3.438D-01
    1.350000    5.6302364403174D-01  2.236D-01
    1.375000    3.5844735484522D-01  1.405D-01
    1.400000    2.1969234203869D-01  8.482D-02
    1.425000    1.2865594854040D-01  4.877D-02
    1.450000    7.1227415607682D-02  2.640D-02
    1.475000    3.6687280868925D-02  1.322D-02
    1.500000    1.7124372433968D-02  5.953D-03
    1.525000    6.8914224115631D-03  2.312D-03
    1.550000    2.1139633179475D-03  7.860D-04
    1.575000    2.6136394106003D-04  4.055D-04
    1.600000   -2.1616541272762D-04  3.126D-04
    1.625000   -1.8488742685100D-04  2.091D-04
    1.650000   -6.2632202468531D-05  1.218D-04
    1.675000    2.6157763100122D-06  5.919D-05
    1.700000    3.5105333855766D-06  8.690D-06
    1.725000   -1.4302733106939D-05  3.503D-05
    1.750000   -6.1980424882774D-06  7.522D-05
    1.775000    4.3484771138884D-05  1.201D-04
    1.800000    1.1265477207753D-04  1.727D-04
    1.825000    1.4581673242931D-04  2.239D-04
    1.850000    6.6495859318410D-05  2.631D-04
    1.875000   -2.0631819828878D-04  2.974D-04
    1.900000   -7.4081220655994D-04  3.699D-04
    1.925000   -1.5763088587776D-03  5.348D-04
    1.950000   -2.7100193468912D-03  8.133D-04
    1.975000   -4.0874282045624D-03  1.219D-03
    2.000000   -5.5966411170852D-03  1.805D-03
    2.025000   -7.0666390549766D-03  2.686D-03
    2.050000   -8.2691049623678D-03  4.034D-03
    2.075000   -8.9233080461448D-03  6.060D-03
    2.100000   -8.7034296474957D-03  8.987D-03
    2.125000   -7.2476777258392D-03  1.304D-02
    2.150000   -4.1685489327865D-03  1.845D-02
    2.175000    9.3635566324272D-04  2.543D-02
    2.200000    8.4734848583538D-03  3.421D-02
    2.225000    1.8842901720037D-02  4.500D-02
    2.250000    3.2428609405729D-02  5.798D-02
    2.275000    4.9589901636844D-02  7.333D-02
    2.300000    7.0653918228424D-02  9.119D-02
    2.325000    9.5909511388929D-02  1.117D-01
    2.350000    1.2560246373324D-01  1.350D-01
    2.375000    1.5993204488910D-01  1.610D-01
    2.400000    1.9904885027980D-01  1.900D-01
    2.425000    2.4305383265319D-01  2.218D-01
    2.450000    2.9199841335034D-01  2.564D-01
    2.475000    3.4588554509352D-01  2.939D-01
    2.500000    4.0467159003494D-01  3.341D-01
    2.525000    4.6826887473209D-01  3.771D-01
    2.550000    5.3654878642635D-01  4.225D-01
    2.575000    6.0934528140354D-01  4.705D-01
    2.600000    6.8645868532124D-01  5.207D-01
    2.625000    7.6765967633595D-01  5.731D-01
    2.650000    8.5269335391873D-01  6.274D-01
    2.675000    9.4128330880330D-01  6.836D-01
    2.700000    1.0331356220786D+00  7.413D-01
    2.725000    1.1279427336383D+00  8.005D-01
    2.750000    1.2253871317522D+00  8.609D-01
    2.775000    1.3251448262277D+00  9.224D-01
    2.800000    1.4268885773601D+00  9.847D-01
    2.825000    1.5302908615537D+00  1.048D+00
    2.850000    1.6350265621115D+00  1.111D+00
    2.875000    1.7407753802552D+00  1.175D+00
    2.900000    1.8472239669837D+00  1.239D+00
    2.925000    1.9540677809766D+00  1.302D+00
    2.950000    2.0610126814643D+00  1.366D+00
    2.975000    2.1677762679081D+00  1.429D+00
    3.000000    2.2740889805410D+00  1.492D+00
    3.025000    2.3796949774026D+00  1.553D+00
    3.050000    2.4843528045403D+00  1.615D+00
    3.075000    2.5878358766278D+00  1.675D+00
    3.100000    2.6899327854349D+00  1.734D+00
    3.125000    2.7904474534533D+00  1.792D+00
    3.150000    2.8891991495882D+00  1.849D+00
    3.175000    2.9860223832248D+00  1.904D+00
    3.200000    3.0807666922301D+00  1.958D+00
    3.225000    3.1732963395748D+00  2.011D+00
    3.250000    3.2634899323182D+00  2.062D+00
    3.275000    3.3512399756998D+00  2.112D+00
    3.300000    3.4364523740654D+00  2.160D+00
    3.325000    3.5190458893331D+00  2.206D+00
    3.350000    3.5989515667039D+00  2.251D+00
    3.375000    3.6761121363404D+00  2.294D+00
    3.400000    3.7504813988044D+00  2.335D+00
    3.425000    3.8220236011503D+00  2.374D+00
    3.450000    3.8907128097323D+00  2.412D+00
    3.475000    3.9565322849990D+00  2.448D+00
    3.500000    4.0194738628226D+00  2.482D+00
    3.525000    4.0795373462385D+00  2.515D+00
    3.550000    4.1367299108578D+00  2.546D+00
    3.575000    4.1910655266607D+00  2.575D+00
    3.600000    4.2425643983714D+00  2.603D+00
    3.625000    4.2912524261658D+00  2.628D+00
    3.650000    4.3371606880583D+00  2.653D+00
    3.675000    4.3803249449571D+00  2.675D+00
    3.700000    4.4207851690606D+00  2.696D+00
    3.725000    4.4585850959933D+00  2.716D+00
    3.750000    4.4937718008386D+00  2.734D+00
    3.775000    4.5263952980197D+00  2.750D+00
    3.800000    4.5565081648050D+00  2.765D+00
    3.825000    4.5841651880630D+00  2.779D+00
    3.850000    4.6094230337698D+00  2.791D+00
    3.875000    4.6323399386693D+00  2.802D+00
    3.900000    4.6529754234042D+00  2.811D+00
    3.925000    4.6713900263700D+00  2.819D+00
    3.950000    4.6876450574958D+00  2.826D+00
    3.975000    4.7018023711209D+00  2.832D+00
    4.000000    4.7139241571078D+00  2.837D+00
    4.025000    4.7240727493238D+00  2.841D+00
    4.050000    4.7323104506147D+00  2.843D+00
    4.075000    4.7386993733970D+00  2.845D+00
    4.100000    4.7433012950050D+00  2.845D+00
    4.125000    4.7461775269422D+00  2.845D+00
    4.150000    4.7473887972052D+00  2.843D+00
    4.175000    4.7469951448705D+00  2.841D+00
    4.200000    4.7450558261594D+00  2.838D+00
    4.225000    4.7416292312230D+00  2.834D+00
    4.250000    4.7367728109194D+00  2.829D+00
    4.275000    4.7305430128829D+00  2.823D+00
    4.300000    4.7229952262183D+00  2.817D+00
    4.325000    4.7141837341837D+00  2.810D+00
    4.350000    4.7041616742542D+00  2.802D+00
    4.375000    4.6929810049950D+00  2.794D+00
    4.400000    4.6806924791985D+00  2.785D+00
    4.425000    4.6673456227720D+00  2.775D+00
    4.450000    4.6529887188932D+00  2.765D+00
    4.475000    4.6376687969781D+00  2.755D+00
    4.500000    4.6214316260330D+00  2.744D+00
    4.525000    4.6043217119923D+00  2.732D+00
    4.550000    4.5863822986655D+00  2.720D+00
    4.575000    4.5676553719448D+00  2.708D+00
    4.600000    4.5481816669463D+00  2.695D+00
    4.625000    4.5280006777826D+00  2.682D+00
    4.650000    4.5071506696824D+00  2.668D+00
    4.675000    4.4856686931978D+00  2.654D+00
    4.700000    4.4635906002549D+00  2.640D+00
    4.725000    4.4409510618239D+00  2.626D+00
    4.750000    4.4177835870026D+00  2.611D+00
    4.775000    4.3941205433211D+00  2.596D+00
    4.800000    4.3699931780922D+00  2.581D+00
    4.825000    4.3454316406477D+00  2.565D+00
    4.850000    4.3204650053101D+00  2.550D+00
    4.875000    4.2951212949669D+00  2.534D+00
    4.900000    4.2694275051214D+00  2.518D+00
    4.925000    4.2434096283102D+00  2.502D+00
    4.950000    4.2170926787812D+00  2.485D+00
    4.975000    4.1905007173428D+00  2.469D+00
    5.000000    4.1636568762978D+00  2.452D+00
    5.025000    4.1365833843863D+00  2.435D+00
    5.050000    4.1093015916703D+00  2.419D+00
    5.075000    4.0818319942980D+00  2.402D+00
    5.100000    4.0541942590923D+00  2.385D+00
    5.125000    4.0264072479167D+00  2.368D+00
    5.150000    3.9984890417731D+00  2.351D+00
    5.175000    3.9704569645950D+00  2.334D+00
    5.200000    3.9423276067025D+00  2.316D+00
    5.225000    3.9141168478892D+00  2.299D+00
    5.250000    3.8858398801173D+00  2.282D+00
    5.275000    3.8575112297977D+00  2.265D+00
    5.300000    3.8291447796390D+00  2.248D+00
    5.325000    3.8007537900488D+00  2.230D+00
    5.350000    3.7723509200758D+00  2.213D+00
    5.375000    3.7439482478825D+00  2.196D+00
    5.400000    3.7155572907416D+00  2.179D+00
    5.425000    3.6871890245497D+00  2.162D+00
    5.450000    3.6588539028563D+00  2.145D+00
    5.475000    3.6305618754046D+00  2.128D+00
    5.500000    3.6023224061853D+00  2.111D+00
    5.525000    3.5741444910032D+00  2.094D+00
    5.550000    3.5460366745597D+00  2.077D+00
    5.575000    3.5180070670547D+00  2.060D+00
    5.600000    3.4900633603113D+00  2.043D+00
    5.625000    3.4622128434296D+00  2.027D+00
    5.650000    3.4344624179752D+00  2.010D+00
    5.675000    3.4068186127082D+00  1.993D+00
    5.700000    3.3792875978613D+00  1.977D+00
    5.725000    3.3518751989736D+00  1.961D+00
    5.750000    3.3245869102890D+00  1.944D+00
    5.775000    3.2974279077265D+00  1.928D+00
    5.800000    3.2704030614324D+00  1.912D+00
    5.825000    3.2435169479226D+00  1.896D+00
    5.850000    3.2167738618246D+00  1.880D+00
    5.875000    3.1901778272278D+00  1.864D+00
    5.900000    3.1637326086528D+00  1.848D+00
    5.925000    3.1374417216472D+00  1.833D+00
    5.950000    3.1113084430198D+00  1.817D+00
    5.975000    3.0853358207204D+00  1.802D+00
    6.000000    3.0595266833764D+00  1.787D+00
    6.025000    3.0338836494949D+00  1.771D+00
    6.050000    3.0084091363390D+00  1.756D+00
    6.075000    2.9831053684894D+00  1.741D+00
    6.100000    2.9579743860984D+00  1.726D+00
    6.125000    2.9330180528467D+00  1.711D+00
    6.150000    2.9082380636114D+00  1.697D+00
    6.175000    2.8836359518543D+00  1.682D+00
    6.200000    2.8592130967386D+00  1.668D+00
    6.225000    2.8349707299825D+00  1.653D+00
    6.250000    2.8109099424592D+00  1.639D+00
    6.275000    2.7870316905493D+00  1.625D+00
    6.300000    2.7633368022556D+00  1.611D+00
    6.325000    2.7398259830866D+00  1.597D+00
    6.350000    2.7164998217172D+00  1.583D+00
    6.375000    2.6933587954337D+00  1.570D+00
    6.400000    2.6704032753696D+00  1.556D+00
    6.425000    2.6476335315412D+00  1.543D+00
    6.450000    2.6250497376870D+00  1.529D+00
    6.475000    2.6026519759206D+00  1.516D+00
    6.500000    2.5804402412008D+00  1.503D+00
    6.525000    2.5584144456277D+00  1.490D+00
    6.550000    2.5365744225684D+00  1.477D+00
    6.575000    2.5149199306211D+00  1.465D+00
    6.600000    2.4934506574203D+00  1.452D+00
    6.625000    2.4721662232910D+00  1.439D+00
    6.650000    2.4510661847568D+00  1.427D+00
    6.675000    2.4301500379060D+00  1.415D+00
    6.700000    2.4094172216225D+00  1.402D+00
    6.725000    2.3888671206852D+00  1.390D+00
    6.750000    2.3684990687411D+00  1.378D+00
    6.775000    2.3483123511566D+00  1.367D+00
    6.800000    2.3283062077522D+00  1.355D+00
    6.825000    2.3084798354234D+00  1.343D+00
    6.850000    2.2888323906535D+00  1.332D+00
    6.875000    2.2693629919213D+00  1.320D+00
    6.900000    2.2500707220087D+00  1.309D+00
    6.925000    2.2309546302103D+00  1.298D+00
    6.950000    2.2120137344507D+00  1.286D+00
    6.975000    2.1932470233110D+00  1.275D+00
    7.000000    2.1746534579698D+00  1.265D+00
    7.025000    2.1562319740600D+00  1.254D+00
    7.050000    2.1379814834469D+00  1.243D+00
    7.075000    2.1199008759281D+00  1.232D+00
    7.100000    2.1019890208604D+00  1.222D+00
    7.125000    2.0842447687148D+00  1.212D+00
    7.150000    2.0666669525637D+00  1.201D+00
    7.175000    2.0492543895022D+00  1.191D+00
    7.200000    2.0320058820059D+00  1.181D+00
    7.225000    2.0149202192286D+00  1.171D+00
    7.250000    1.9979961782408D+00  1.161D+00
    7.275000    1.9812325252127D+00  1.151D+00
    7.300000    1.9646280165434D+00  1.142D+00
    7.325000    1.9481813999382D+00  1.132D+00
    7.350000    1.9318914154354D+00  1.122D+00
    7.375000    1.9157567963871D+00  1.113D+00
    7.400000    1.8997762703923D+00  1.104D+00
    7.425000    1.8839485601872D+00  1.094D+00
    7.450000    1.8682723844926D+00  1.085D+00
    7.475000    1.8527464588210D+00  1.076D+00
    7.500000    1.8373694962450D+00  1.067D+00
    7.525000    1.8221402081274D+00  1.058D+00
    7.550000    1.8070573048163D+00  1.049D+00
    7.575000    1.7921194963058D+00  1.041D+00
    7.600000    1.7773254928629D+00  1.032D+00
    7.625000    1.7626740056232D+00  1.023D+00
    7.650000    1.7481637471568D+00  1.015D+00
    7.675000    1.7337934320036D+00  1.007D+00
    7.700000    1.7195617771821D+00  9.982D-01
    7.725000    1.7054675026705D+00  9.900D-01
    7.750000    1.6915093318627D+00  9.818D-01
    7.775000    1.6776859919991D+00  9.738D-01
    7.800000    1.6639962145741D+00  9.658D-01
    7.825000    1.6504387357212D+00  9.579D-01
    7.850000    1.6370122965761D+00  9.500D-01
    7.875000    1.6237156436190D+00  9.423D-01
    7.900000    1.6105475289973D+00  9.346D-01
    7.925000    1.5975067108290D+00  9.270D-01
    7.950000    1.5845919534882D+00  9.194D-01
    7.975000    1.5718020278726D+00  9.120D-01
    8.000000    1.5591357116550D+00  9.046D-01
    8.025000    1.5465917895181D+00  8.973D-01
    8.050000    1.5341690533742D+00  8.900D-01
    8.075000    1.5218663025710D+00  8.829D-01
    8.100000    1.5096823440821D+00  8.758D-01
    8.125000    1.4976159926851D+00  8.687D-01
    8.150000    1.4856660711264D+00  8.618D-01
    8.175000    1.4738314102742D+00  8.549D-01
    8.200000    1.4621108492594D+00  8.480D-01
    8.225000    1.4505032356053D+00  8.413D-01
    8.250000    1.4390074253471D+00  8.346D-01
    8.275000    1.4276222831404D+00  8.279D-01
    8.300000    1.4163466823611D+00  8.214D-01
    8.325000    1.4051795051948D+00  8.148D-01
    8.350000    1.3941196427182D+00  8.084D-01
    8.375000    1.3831659949715D+00  8.020D-01
    8.400000    1.3723174710233D+00  7.957D-01
    8.425000    1.3615729890270D+00  7.894D-01
    8.450000    1.3509314762706D+00  7.833D-01
    8.475000    1.3403918692195D+00  7.771D-01
    8.500000    1.3299531135519D+00  7.710D-01
    8.525000    1.3196141641886D+00  7.650D-01
    8.550000    1.3093739853166D+00  7.591D-01
    8.575000    1.2992315504069D+00  7.532D-01
    8.600000    1.2891858422265D+00  7.473D-01
    8.625000    1.2792358528461D+00  7.415D-01
    8.650000    1.2693805836419D+00  7.358D-01
    8.675000    1.2596190452936D+00  7.301D-01
    8.700000    1.2499502577769D+00  7.245D-01
    8.725000    1.2403732503531D+00  7.189D-01
    8.750000    1.2308870615535D+00  7.134D-01
    8.775000    1.2214907391609D+00  7.079D-01
    8.800000    1.2121833401868D+00  7.025D-01
    8.825000    1.2029639308460D+00  6.971D-01
    8.850000    1.1938315865273D+00  6.918D-01
    8.875000    1.1847853917615D+00  6.866D-01
    8.900000    1.1758244401864D+00  6.814D-01
    8.925000    1.1669478345096D+00  6.762D-01
    8.950000    1.1581546864677D+00  6.711D-01
    8.975000    1.1494441167845D+00  6.660D-01
    9.000000    1.1408152551256D+00  6.610D-01
    9.025000    1.1322672400518D+00  6.560D-01
    9.050000    1.1237992189704D+00  6.511D-01
    9.075000    1.1154103480841D+00  6.462D-01
    9.100000    1.1070997923389D+00  6.414D-01
    9.125000    1.0988667253697D+00  6.366D-01
    9.150000    1.0907103294449D+00  6.319D-01
    9.175000    1.0826297954095D+00  6.272D-01
    9.200000    1.0746243226265D+00  6.225D-01
    9.225000    1.0666931189178D+00  6.179D-01
    9.250000    1.0588354005031D+00  6.133D-01
    9.275000    1.0510503919385D+00  6.088D-01
    9.300000    1.0433373260539D+00  6.043D-01
    9.325000    1.0356954438895D+00  5.999D-01
    9.350000    1.0281239946315D+00  5.955D-01
    9.375000    1.0206222355468D+00  5.911D-01
    9.400000    1.0131894319179D+00  5.868D-01
    9.425000    1.0058248569765D+00  5.825D-01
    9.450000    9.9852779183633D-01  5.783D-01
    9.475000    9.9129752542640D-01  5.741D-01
    9.500000    9.8413335442319D-01  5.699D-01
    9.525000    9.7703458318267D-01  5.658D-01
    9.550000    9.7000052367208D-01  5.617D-01
    9.575000    9.6303049540133D-01  5.577D-01
    9.600000    9.5612382535435D-01  5.537D-01
    9.625000    9.4927984792015D-01  5.497D-01
    9.650000    9.4249790482384D-01  5.458D-01
    9.675000    9.3577734505758D-01  5.419D-01
    9.700000    9.2911752481145D-01  5.380D-01
    9.725000    9.2251780740433D-01  5.342D-01
    9.750000    9.1597756321486D-01  5.304D-01
    9.775000    9.0949616961245D-01  5.266D-01
    9.800000    9.0307301088831D-01  5.229D-01
    9.825000    8.9670747818678D-01  5.192D-01
    9.850000    8.9039896943663D-01  5.155D-01
    9.875000    8.8414688928267D-01  5.119D-01
    9.900000    8.7795064901754D-01  5.083D-01
    9.925000    8.7180966651367D-01  5.047D-01
    9.950000    8.6572336615563D-01  5.012D-01
    9.975000    8.5969117877260D-01  4.977D-01
   10.000000    8.5371254157127D-01  4.942D-01
